<?xml version="1.0" encoding="UTF-8"?>

<!-- generated on 2025-08-18 15:57:01 by Eclipse SUMO GUI Version 1.23.1
<sumoConfiguration xmlns:xsi="http://www.w3.org/2001/XMLSchema-instance" xsi:noNamespaceSchemaLocation="http://sumo.dlr.de/xsd/sumoConfiguration.xsd">

    <input>
        <net-file value="PhuQuoc/phuquoc.net.xml"/>
        <route-files value="PhuQuoc/phuquoc.rou.xml,PhuQuoc/phuquoc-demo.rou.xml"/>
        <additional-files value="PhuQuoc/detector.add.xml"/>
    </input>

    <output>
        <tripinfo-output value="PhuQuoc/../../output/tripinfo_baseline.xml"/>
        <edgedata-output value="PhuQuoc/../../output/edgedata_baseline.xml"/>
    </output>

    <time>
        <step-length value="1"/>
    </time>

    <processing>
        <lateral-resolution value="0.5"/>
        <ignore-route-errors value="true"/>
        <time-to-teleport value="50"/>
        <tls.actuated.jam-threshold value="30"/>
    </processing>

    <routing>
        <device.rerouting.adaptation-steps value="18"/>
        <device.rerouting.adaptation-interval value="10"/>
    </routing>

    <report>
        <verbose value="true"/>
        <duration-log.statistics value="true"/>
        <no-step-log value="true"/>
    </report>

    <traci_server>
        <remote-port value="8814"/>
    </traci_server>

    <gui_only>
        <gui-settings-file value="PhuQuoc/phuquoc.view.xml"/>
        <start value="true"/>
    </gui_only>

</sumoConfiguration>
-->

<meandata xmlns:xsi="http://www.w3.org/2001/XMLSchema-instance" xsi:noNamespaceSchemaLocation="http://sumo.dlr.de/xsd/meandata_file.xsd">
    <interval begin="0.00" end="710.00" id="DEFAULT_EDGEDATA">
        <edge id="-100954129#0" sampledSeconds="1072.10" traveltime="23.74" overlapTraveltime="25.36" density="25.75" laneDensity="25.75" occupancy="11.82" waitingTime="622.00" timeLoss="823.83" speed="2.50" speedRelative="0.18" departed="7" arrived="0" entered="41" left="48" laneChangedFrom="0" laneChangedTo="0" teleported="8"/>
        <edge id="-100954129#1" sampledSeconds="233.32" traveltime="6.24" overlapTraveltime="6.77" density="6.20" laneDensity="6.20" occupancy="2.12" waitingTime="0.00" timeLoss="52.99" speed="8.42" speedRelative="0.61" departed="6" arrived="1" entered="33" left="38" laneChangedFrom="0" laneChangedTo="0"/>
        <edge id="-100954129#3" sampledSeconds="1157.35" traveltime="28.42" overlapTraveltime="30.91" density="23.93" laneDensity="23.93" occupancy="11.05" waitingTime="663.00" timeLoss="922.44" speed="2.36" speedRelative="0.17" departed="3" arrived="3" entered="37" left="37" laneChangedFrom="0" laneChangedTo="0" teleported="6"/>
        <edge id="-100954129#4" sampledSeconds="185.95" traveltime="5.10" overlapTraveltime="5.52" density="4.90" laneDensity="4.90" occupancy="1.74" waitingTime="0.00" timeLoss="24.45" speed="10.42" speedRelative="0.75" departed="4" arrived="4" entered="32" left="32" laneChangedFrom="0" laneChangedTo="0"/>
        <edge id="-100954129#5" sampledSeconds="459.97" traveltime="14.95" overlapTraveltime="15.37" density="4.07" laneDensity="4.07" occupancy="1.68" waitingTime="0.00" timeLoss="63.42" speed="10.65" speedRelative="0.77" departed="8" arrived="4" entered="26" left="30" laneChangedFrom="0" laneChangedTo="0"/>
        <edge id="-100954163#8" sampledSeconds="2.73" traveltime="2.58" overlapTraveltime="2.73" density="0.10" laneDensity="0.10" occupancy="0.02" waitingTime="0.00" timeLoss="0.20" speed="15.46" speedRelative="1.11" departed="0" arrived="1" entered="1" left="0" laneChangedFrom="0" laneChangedTo="0"/>
        <edge id="-100954163#9" sampledSeconds="94.16" traveltime="15.66" overlapTraveltime="16.68" density="0.69" laneDensity="0.69" occupancy="0.18" waitingTime="0.00" timeLoss="14.31" speed="11.76" speedRelative="0.85" departed="7" arrived="0" entered="3" left="9" laneChangedFrom="0" laneChangedTo="0"/>
        <edge id="-100954245#13" sampledSeconds="1205.41" traveltime="115.38" overlapTraveltime="116.68" density="1.17" laneDensity="1.17" occupancy="0.57" waitingTime="181.00" timeLoss="303.59" speed="12.51" speedRelative="0.56" departed="4" arrived="0" entered="9" left="11" laneChangedFrom="0" laneChangedTo="0" teleported="1"/>
        <edge id="-1056899464#0" sampledSeconds="430.20" traveltime="7.39" overlapTraveltime="8.49" density="7.64" laneDensity="7.64" occupancy="3.34" waitingTime="0.00" timeLoss="116.06" speed="9.92" speedRelative="0.71" departed="5" arrived="0" entered="49" left="52" laneChangedFrom="0" laneChangedTo="0"/>
        <edge id="-1056899464#1" sampledSeconds="455.25" traveltime="7.82" overlapTraveltime="8.29" density="7.14" laneDensity="7.14" occupancy="3.16" waitingTime="0.00" timeLoss="62.26" speed="11.41" speedRelative="0.82" departed="6" arrived="2" entered="52" left="56" laneChangedFrom="0" laneChangedTo="0"/>
        <edge id="-1117528626#0" sampledSeconds="151.11" traveltime="59.71" overlapTraveltime="64.58" density="0.81" laneDensity="0.81" occupancy="0.23" waitingTime="70.00" timeLoss="88.67" speed="4.10" speedRelative="0.18" departed="4" arrived="0" entered="0" left="4" laneChangedFrom="0" laneChangedTo="0" teleported="1"/>
        <edge id="-1117528626#1" sampledSeconds="496.50" traveltime="57.79" overlapTraveltime="58.59" density="1.57" laneDensity="1.57" occupancy="0.47" waitingTime="208.00" timeLoss="265.57" speed="7.65" speedRelative="0.34" departed="5" arrived="2" entered="5" left="8" laneChangedFrom="0" laneChangedTo="0" teleported="1"/>
        <edge id="-1117528627#0" sampledSeconds="78.59" traveltime="35.35" overlapTraveltime="36.55" density="0.44" laneDensity="0.44" occupancy="0.11" waitingTime="30.00" timeLoss="47.55" speed="6.92" speedRelative="0.25" departed="5" arrived="0" entered="0" left="5" laneChangedFrom="0" laneChangedTo="0"/>
        <edge id="-1117528627#1" sampledSeconds="101.64" traveltime="16.00" overlapTraveltime="17.40" density="0.75" laneDensity="0.75" occupancy="0.30" waitingTime="0.00" timeLoss="19.28" speed="11.28" speedRelative="0.41" departed="6" arrived="2" entered="2" left="6" laneChangedFrom="0" laneChangedTo="0"/>
        <edge id="-1117528627#2" sampledSeconds="557.07" traveltime="51.88" overlapTraveltime="52.68" density="1.77" laneDensity="1.77" occupancy="0.43" waitingTime="123.00" timeLoss="193.91" speed="8.48" speedRelative="0.31" departed="6" arrived="3" entered="8" left="11" laneChangedFrom="0" laneChangedTo="0"/>
        <edge id="-1135316108" sampledSeconds="1716.95" traveltime="74.25" overlapTraveltime="74.50" density="2.32" laneDensity="2.32" occupancy="0.96" waitingTime="0.00" timeLoss="113.74" speed="14.06" speedRelative="0.63" departed="4" arrived="1" entered="21" left="22" laneChangedFrom="0" laneChangedTo="0"/>
        <edge id="-1135316109" sampledSeconds="454.00" traveltime="17.01" overlapTraveltime="17.98" density="3.01" laneDensity="3.01" occupancy="1.22" waitingTime="30.00" timeLoss="111.48" speed="12.06" speedRelative="0.54" departed="4" arrived="6" entered="23" left="21" laneChangedFrom="0" laneChangedTo="0"/>
        <edge id="-1149576119" sampledSeconds="191.94" traveltime="30.57" overlapTraveltime="22.13" density="333.75" laneDensity="333.75" occupancy="25.18" waitingTime="180.00" timeLoss="187.95" speed="0.17" speedRelative="0.01" departed="3" arrived="3" entered="9" left="9" laneChangedFrom="0" laneChangedTo="0" teleported="2"/>
        <edge id="-1149578009" sampledSeconds="54.31" traveltime="74.45" overlapTraveltime="57.39" density="77.27" laneDensity="77.27" occupancy="6.83" waitingTime="51.00" timeLoss="53.55" speed="0.09" speedRelative="0.00" departed="2" arrived="1" entered="1" left="2" laneChangedFrom="0" laneChangedTo="0" teleported="1"/>
        <edge id="-1149578943" sampledSeconds="163.29" traveltime="18.86" overlapTraveltime="30.96" density="102.67" laneDensity="102.67" occupancy="21.77" waitingTime="145.00" timeLoss="157.48" speed="0.29" speedRelative="0.01" departed="2" arrived="2" entered="12" left="11" laneChangedFrom="0" laneChangedTo="0" teleported="1"/>
        <edge id="-1149578944" sampledSeconds="218.45" traveltime="23.80" overlapTraveltime="40.06" density="932.34" laneDensity="932.34" occupancy="21.52" waitingTime="206.00" timeLoss="213.73" speed="0.13" speedRelative="0.01" departed="4" arrived="1" entered="9" left="12" laneChangedFrom="0" laneChangedTo="0" teleported="3"/>
        <edge id="-1149578945" sampledSeconds="212.37" traveltime="38.88" overlapTraveltime="45.46" density="404.21" laneDensity="404.21" occupancy="26.49" waitingTime="204.00" timeLoss="209.68" speed="0.06" speedRelative="0.00" departed="4" arrived="1" entered="11" left="14" laneChangedFrom="0" laneChangedTo="0" teleported="4"/>
        <edge id="-1149579534" sampledSeconds="172.99" traveltime="36.01" overlapTraveltime="33.00" density="1107.46" laneDensity="1107.46" occupancy="17.58" waitingTime="162.00" timeLoss="169.57" speed="0.13" speedRelative="0.01" departed="4" arrived="1" entered="11" left="13" laneChangedFrom="0" laneChangedTo="0" teleported="2"/>
        <edge id="-1149579535" sampledSeconds="271.88" traveltime="24.58" overlapTraveltime="26.35" density="403.09" laneDensity="403.09" occupancy="34.37" waitingTime="246.00" timeLoss="266.84" speed="0.16" speedRelative="0.01" departed="6" arrived="4" entered="16" left="17" laneChangedFrom="0" laneChangedTo="0" teleported="3"/>
        <edge id="-1149580108" sampledSeconds="340.64" traveltime="48.28" overlapTraveltime="72.75" density="345.16" laneDensity="345.16" occupancy="44.17" waitingTime="324.00" timeLoss="337.59" speed="0.08" speedRelative="0.00" departed="6" arrived="2" entered="13" left="16" laneChangedFrom="0" laneChangedTo="0" teleported="7"/>
        <edge id="-1149580109" sampledSeconds="56.09" traveltime="5.54" overlapTraveltime="5.53" density="395.02" laneDensity="395.02" occupancy="7.35" waitingTime="47.00" timeLoss="51.78" speed="0.57" speedRelative="0.03" departed="1" arrived="3" entered="12" left="9" laneChangedFrom="0" laneChangedTo="0"/>
        <edge id="-1149580110" sampledSeconds="328.34" traveltime="20.02" overlapTraveltime="24.30" density="2312.28" laneDensity="2312.28" occupancy="30.98" waitingTime="307.91" timeLoss="320.81" speed="0.14" speedRelative="0.01" departed="5" arrived="0" entered="13" left="17" laneChangedFrom="0" laneChangedTo="0" teleported="2"/>
        <edge id="-1149580308" sampledSeconds="289.02" traveltime="28.93" overlapTraveltime="45.21" density="384.03" laneDensity="384.03" occupancy="36.44" waitingTime="275.00" timeLoss="285.33" speed="0.11" speedRelative="0.00" departed="2" arrived="3" entered="18" left="17" laneChangedFrom="0" laneChangedTo="0" teleported="7"/>
        <edge id="-1149581388" sampledSeconds="589.87" traveltime="12.63" overlapTraveltime="13.05" density="6.02" laneDensity="6.02" occupancy="2.47" waitingTime="51.00" timeLoss="216.27" speed="10.92" speedRelative="0.49" departed="7" arrived="0" entered="43" left="50" laneChangedFrom="0" laneChangedTo="0" teleported="1"/>
        <edge id="-1149582046#3" sampledSeconds="21.00" traveltime="122.84" overlapTraveltime="123.51" density="0.01" laneDensity="0.01" occupancy="0.01" waitingTime="0.00" timeLoss="0.28" speed="16.45" speedRelative="0.59" departed="0" arrived="0" entered="2" left="0" laneChangedFrom="0" laneChangedTo="0"/>
        <edge id="-1270367191#1" sampledSeconds="1663.51" traveltime="24.62" overlapTraveltime="25.24" density="9.27" laneDensity="9.27" occupancy="2.67" waitingTime="34.00" timeLoss="348.39" speed="10.13" speedRelative="0.36" departed="5" arrived="2" entered="66" left="69" laneChangedFrom="0" laneChangedTo="0"/>
        <edge id="-1270367191#2" sampledSeconds="381.79" traveltime="1.68" overlapTraveltime="5.01" density="130.84" laneDensity="130.84" occupancy="29.40" waitingTime="244.00" timeLoss="323.73" speed="1.56" speedRelative="0.06" departed="9" arrived="3" entered="80" left="86" laneChangedFrom="0" laneChangedTo="0" teleported="2"/>
        <edge id="-1307054560#0" sampledSeconds="3463.83" traveltime="54.91" overlapTraveltime="61.59" density="173.55" laneDensity="173.55" occupancy="85.09" waitingTime="2694.00" timeLoss="3329.36" speed="0.55" speedRelative="0.02" departed="0" arrived="0" entered="110" left="103" laneChangedFrom="0" laneChangedTo="0" teleported="19"/>
        <edge id="-1307054560#1" sampledSeconds="5763.09" traveltime="60.23" overlapTraveltime="69.83" density="158.81" laneDensity="158.81" occupancy="70.61" waitingTime="3833.00" timeLoss="5475.36" speed="0.81" speedRelative="0.03" departed="0" arrived="0" entered="117" left="107" laneChangedFrom="0" laneChangedTo="0" teleported="24"/>
        <edge id="-1307054560#2" sampledSeconds="5486.38" traveltime="44.56" overlapTraveltime="49.88" density="73.43" laneDensity="73.43" occupancy="41.45" waitingTime="2572.65" timeLoss="4725.25" speed="2.23" speedRelative="0.08" departed="6" arrived="0" entered="124" left="114" laneChangedFrom="0" laneChangedTo="0" teleported="16"/>
        <edge id="-1307054560#3" sampledSeconds="1509.05" traveltime="10.33" overlapTraveltime="12.09" density="19.93" laneDensity="19.93" occupancy="9.06" waitingTime="236.00" timeLoss="638.95" speed="9.25" speedRelative="0.33" departed="5" arrived="0" entered="123" left="126" laneChangedFrom="0" laneChangedTo="0" teleported="1"/>
        <edge id="-1307054560#4" sampledSeconds="1100.85" traveltime="8.34" overlapTraveltime="8.62" density="13.20" laneDensity="13.20" occupancy="4.96" waitingTime="0.00" timeLoss="113.34" speed="14.09" speedRelative="0.51" departed="6" arrived="2" entered="124" left="128" laneChangedFrom="0" laneChangedTo="0"/>
        <edge id="-1307054560#5" sampledSeconds="1297.12" traveltime="10.10" overlapTraveltime="10.42" density="14.74" laneDensity="14.74" occupancy="6.10" waitingTime="0.00" timeLoss="289.20" speed="12.32" speedRelative="0.44" departed="8" arrived="2" entered="121" left="127" laneChangedFrom="0" laneChangedTo="0"/>
        <edge id="-152227686#0" sampledSeconds="221.72" traveltime="5.01" overlapTraveltime="5.44" density="5.62" laneDensity="5.62" occupancy="2.36" waitingTime="0.00" timeLoss="25.91" speed="11.10" speedRelative="0.80" departed="6" arrived="4" entered="39" left="40" laneChangedFrom="0" laneChangedTo="0"/>
        <edge id="-152227686#1" sampledSeconds="109.05" traveltime="2.34" overlapTraveltime="2.81" density="7.73" laneDensity="7.73" occupancy="2.53" waitingTime="0.00" timeLoss="28.39" speed="8.63" speedRelative="0.62" departed="6" arrived="1" entered="35" left="40" laneChangedFrom="0" laneChangedTo="0"/>
        <edge id="-152227686#2" sampledSeconds="10.75" traveltime="0.60" overlapTraveltime="1.24" density="3.78" laneDensity="3.78" occupancy="0.75" waitingTime="0.00" timeLoss="3.29" speed="7.76" speedRelative="0.56" departed="4" arrived="3" entered="8" left="9" laneChangedFrom="0" laneChangedTo="0"/>
        <edge id="-152227686#6" sampledSeconds="158.98" traveltime="22.03" overlapTraveltime="22.74" density="0.77" laneDensity="0.77" occupancy="0.45" waitingTime="0.00" timeLoss="10.22" speed="12.97" speedRelative="0.93" departed="6" arrived="1" entered="2" left="7" laneChangedFrom="0" laneChangedTo="0"/>
        <edge id="-152227697#2" sampledSeconds="26.92" traveltime="13.35" overlapTraveltime="13.52" density="0.17" laneDensity="0.17" occupancy="0.06" waitingTime="0.00" timeLoss="3.27" speed="16.56" speedRelative="0.75" departed="0" arrived="2" entered="2" left="0" laneChangedFrom="0" laneChangedTo="0"/>
        <edge id="-152227697#3" sampledSeconds="71.26" traveltime="0.69" overlapTraveltime="1.78" density="29.09" laneDensity="29.09" occupancy="5.68" waitingTime="2.00" timeLoss="30.28" speed="4.73" speedRelative="0.21" departed="8" arrived="1" entered="40" left="47" laneChangedFrom="0" laneChangedTo="0"/>
        <edge id="-155315678#4" sampledSeconds="2400.45" traveltime="55.27" overlapTraveltime="56.40" density="5.22" laneDensity="5.22" occupancy="1.99" waitingTime="403.00" timeLoss="812.70" speed="11.55" speedRelative="0.52" departed="7" arrived="0" entered="43" left="43" laneChangedFrom="0" laneChangedTo="0" teleported="11"/>
        <edge id="-155315678#5" sampledSeconds="2191.58" traveltime="41.46" overlapTraveltime="42.85" density="11.45" laneDensity="11.45" occupancy="5.45" waitingTime="705.00" timeLoss="1268.11" speed="6.41" speedRelative="0.29" departed="7" arrived="2" entered="52" left="46" laneChangedFrom="0" laneChangedTo="0" teleported="7"/>
        <edge id="-155315680#1" sampledSeconds="177.55" traveltime="9.35" overlapTraveltime="10.14" density="2.51" laneDensity="2.51" occupancy="1.25" waitingTime="0.00" timeLoss="36.98" speed="10.37" speedRelative="0.75" departed="1" arrived="2" entered="17" left="15" laneChangedFrom="0" laneChangedTo="0"/>
        <edge id="-155315682" sampledSeconds="323.05" traveltime="11.23" overlapTraveltime="11.80" density="4.44" laneDensity="4.44" occupancy="1.22" waitingTime="0.00" timeLoss="68.45" speed="8.92" speedRelative="0.64" departed="12" arrived="4" entered="19" left="27" laneChangedFrom="0" laneChangedTo="0"/>
        <edge id="-155315683" sampledSeconds="359.24" traveltime="24.73" overlapTraveltime="25.78" density="2.51" laneDensity="2.51" occupancy="0.78" waitingTime="35.00" timeLoss="86.85" speed="7.96" speedRelative="0.57" departed="7" arrived="4" entered="11" left="14" laneChangedFrom="0" laneChangedTo="0"/>
        <edge id="-155315688#0" sampledSeconds="159.57" traveltime="9.94" overlapTraveltime="11.95" density="3.38" laneDensity="3.38" occupancy="2.21" waitingTime="36.00" timeLoss="83.01" speed="6.18" speedRelative="0.44" departed="5" arrived="2" entered="10" left="13" laneChangedFrom="0" laneChangedTo="0"/>
        <edge id="-155315688#1" sampledSeconds="276.35" traveltime="8.58" overlapTraveltime="9.52" density="4.22" laneDensity="4.22" occupancy="1.83" waitingTime="4.00" timeLoss="63.71" speed="10.19" speedRelative="0.73" departed="10" arrived="1" entered="23" left="31" laneChangedFrom="0" laneChangedTo="0"/>
        <edge id="-155315693#2" sampledSeconds="1175.34" traveltime="44.82" overlapTraveltime="45.90" density="6.04" laneDensity="6.04" occupancy="3.00" waitingTime="417.00" timeLoss="607.40" speed="6.09" speedRelative="0.44" departed="6" arrived="2" entered="23" left="26" laneChangedFrom="0" laneChangedTo="0" teleported="2"/>
        <edge id="-155315693#8" sampledSeconds="51.92" traveltime="28.84" overlapTraveltime="29.28" density="0.18" laneDensity="0.18" occupancy="0.09" waitingTime="0.00" timeLoss="1.87" speed="14.18" speedRelative="1.02" departed="5" arrived="0" entered="0" left="5" laneChangedFrom="0" laneChangedTo="0"/>
        <edge id="-155315694#2" sampledSeconds="1871.08" traveltime="59.30" overlapTraveltime="61.00" density="11.83" laneDensity="11.83" occupancy="7.03" waitingTime="997.00" timeLoss="1286.10" speed="3.75" speedRelative="0.27" departed="9" arrived="4" entered="28" left="28" laneChangedFrom="0" laneChangedTo="0" teleported="11"/>
        <edge id="-155315694#3" sampledSeconds="68.50" traveltime="4.76" overlapTraveltime="5.27" density="2.35" laneDensity="2.35" occupancy="0.99" waitingTime="0.00" timeLoss="19.12" speed="8.76" speedRelative="0.63" departed="7" arrived="2" entered="11" left="16" laneChangedFrom="0" laneChangedTo="0"/>
        <edge id="-155315695#0" sampledSeconds="2381.12" traveltime="54.10" overlapTraveltime="55.95" density="32.39" laneDensity="32.39" occupancy="15.69" waitingTime="1378.00" timeLoss="2019.82" speed="1.94" speedRelative="0.14" departed="8" arrived="0" entered="45" left="51" laneChangedFrom="0" laneChangedTo="0" teleported="17"/>
        <edge id="-155315695#1" sampledSeconds="185.29" traveltime="5.56" overlapTraveltime="6.01" density="6.35" laneDensity="6.35" occupancy="2.61" waitingTime="0.00" timeLoss="80.31" speed="7.64" speedRelative="0.55" departed="8" arrived="3" entered="27" left="32" laneChangedFrom="0" laneChangedTo="0"/>
        <edge id="-155315695#3" sampledSeconds="410.27" traveltime="21.14" overlapTraveltime="22.33" density="2.36" laneDensity="2.36" occupancy="0.91" waitingTime="0.00" timeLoss="79.04" speed="11.13" speedRelative="0.80" departed="3" arrived="1" entered="17" left="19" laneChangedFrom="0" laneChangedTo="0"/>
        <edge id="-155315695#4" sampledSeconds="120.66" traveltime="6.46" overlapTraveltime="7.73" density="3.33" laneDensity="3.33" occupancy="1.22" waitingTime="13.00" timeLoss="51.64" speed="7.16" speedRelative="0.52" departed="11" arrived="1" entered="10" left="20" laneChangedFrom="0" laneChangedTo="0"/>
        <edge id="-155315711" sampledSeconds="1040.80" traveltime="38.51" overlapTraveltime="40.30" density="18.24" laneDensity="18.24" occupancy="9.53" waitingTime="640.00" timeLoss="855.43" speed="2.13" speedRelative="0.15" departed="7" arrived="1" entered="24" left="27" laneChangedFrom="0" laneChangedTo="0" teleported="5"/>
        <edge id="-155315719#0" sampledSeconds="937.30" traveltime="30.80" overlapTraveltime="31.29" density="2.82" laneDensity="2.82" occupancy="1.14" waitingTime="1.00" timeLoss="114.97" speed="15.12" speedRelative="0.68" departed="3" arrived="2" entered="32" left="30" laneChangedFrom="0" laneChangedTo="0"/>
        <edge id="-155315719#1" sampledSeconds="496.32" traveltime="15.30" overlapTraveltime="15.69" density="4.38" laneDensity="4.38" occupancy="1.65" waitingTime="0.00" timeLoss="117.15" speed="10.42" speedRelative="0.47" departed="7" arrived="4" entered="28" left="31" laneChangedFrom="0" laneChangedTo="0"/>
        <edge id="-155315719#15" sampledSeconds="144.52" traveltime="57.51" overlapTraveltime="57.81" density="0.23" laneDensity="0.23" occupancy="0.06" waitingTime="0.00" timeLoss="9.15" speed="15.26" speedRelative="0.69" departed="7" arrived="0" entered="0" left="6" laneChangedFrom="0" laneChangedTo="0"/>
        <edge id="-155315719#2" sampledSeconds="260.81" traveltime="9.29" overlapTraveltime="9.66" density="3.39" laneDensity="3.39" occupancy="1.16" waitingTime="1.00" timeLoss="56.43" speed="11.60" speedRelative="0.52" departed="3" arrived="2" entered="25" left="26" laneChangedFrom="0" laneChangedTo="0"/>
        <edge id="-155315719#8" sampledSeconds="659.78" traveltime="28.23" overlapTraveltime="28.71" density="2.52" laneDensity="2.52" occupancy="0.86" waitingTime="0.00" timeLoss="111.43" speed="12.95" speedRelative="0.58" departed="9" arrived="2" entered="21" left="24" laneChangedFrom="0" laneChangedTo="0"/>
        <edge id="-155775198#0" sampledSeconds="3459.72" traveltime="49.22" overlapTraveltime="49.99" density="12.89" laneDensity="12.89" occupancy="4.39" waitingTime="627.00" timeLoss="1371.41" speed="7.63" speedRelative="0.27" departed="4" arrived="1" entered="70" left="67" laneChangedFrom="0" laneChangedTo="0" teleported="13"/>
        <edge id="-155775198#3" sampledSeconds="5754.68" traveltime="74.01" overlapTraveltime="74.82" density="20.64" laneDensity="20.64" occupancy="7.54" waitingTime="2045.00" timeLoss="3140.28" speed="5.30" speedRelative="0.19" departed="3" arrived="2" entered="78" left="73" laneChangedFrom="0" laneChangedTo="0" teleported="8"/>
        <edge id="-155775198#4" sampledSeconds="1386.27" traveltime="16.29" overlapTraveltime="17.57" density="61.71" laneDensity="61.71" occupancy="19.46" waitingTime="859.00" timeLoss="1137.21" speed="1.99" speedRelative="0.07" departed="4" arrived="0" entered="81" left="80" laneChangedFrom="0" laneChangedTo="0" teleported="7"/>
        <edge id="-155775198#5" sampledSeconds="861.40" traveltime="4.23" overlapTraveltime="7.81" density="113.18" laneDensity="113.18" occupancy="36.72" waitingTime="508.00" timeLoss="712.24" speed="1.99" speedRelative="0.07" departed="4" arrived="3" entered="124" left="125" laneChangedFrom="0" laneChangedTo="0" teleported="4"/>
        <edge id="-155775198#6" sampledSeconds="2325.53" traveltime="23.24" overlapTraveltime="23.91" density="16.53" laneDensity="16.53" occupancy="5.23" waitingTime="360.00" timeLoss="764.56" speed="8.43" speedRelative="0.30" departed="8" arrived="2" entered="94" left="100" laneChangedFrom="0" laneChangedTo="0" teleported="2"/>
        <edge id="-155775200#1" sampledSeconds="28536.74" traveltime="108.61" overlapTraveltime="109.62" density="54.89" laneDensity="54.89" occupancy="23.43" waitingTime="8103.00" timeLoss="16142.01" speed="6.72" speedRelative="0.24" departed="6" arrived="2" entered="299" left="231" laneChangedFrom="0" laneChangedTo="0" teleported="106"/>
        <edge id="-163652291" sampledSeconds="1405.44" traveltime="68.65" overlapTraveltime="75.09" density="55.03" laneDensity="55.03" occupancy="31.58" waitingTime="1181.00" timeLoss="1354.41" speed="0.56" speedRelative="0.02" departed="5" arrived="1" entered="21" left="21" laneChangedFrom="0" laneChangedTo="0" teleported="12"/>
        <edge id="-205021436#0" sampledSeconds="10918.33" traveltime="65.06" overlapTraveltime="66.59" density="27.47" laneDensity="27.47" occupancy="12.24" waitingTime="2295.00" timeLoss="5224.21" speed="8.48" speedRelative="0.31" departed="4" arrived="0" entered="182" left="146" laneChangedFrom="0" laneChangedTo="0" teleported="35"/>
        <edge id="-205021436#1" sampledSeconds="1989.67" traveltime="12.69" overlapTraveltime="14.18" density="27.25" laneDensity="27.25" occupancy="13.67" waitingTime="450.00" timeLoss="988.70" speed="7.64" speedRelative="0.28" departed="9" arrived="1" entered="136" left="144" laneChangedFrom="0" laneChangedTo="0" teleported="3"/>
        <edge id="-271412010" sampledSeconds="288.71" traveltime="27.42" overlapTraveltime="28.26" density="1.26" laneDensity="1.26" occupancy="0.38" waitingTime="10.00" timeLoss="61.20" speed="11.55" speedRelative="0.83" departed="8" arrived="1" entered="7" left="14" laneChangedFrom="0" laneChangedTo="0"/>
        <edge id="-31905181#0" sampledSeconds="896.12" traveltime="22.12" overlapTraveltime="23.22" density="8.29" laneDensity="8.29" occupancy="3.33" waitingTime="109.00" timeLoss="312.88" speed="6.74" speedRelative="0.48" departed="8" arrived="1" entered="35" left="41" laneChangedFrom="0" laneChangedTo="0"/>
        <edge id="-31905181#3" sampledSeconds="820.27" traveltime="42.50" overlapTraveltime="42.87" density="3.44" laneDensity="3.44" occupancy="1.21" waitingTime="0.00" timeLoss="109.56" speed="7.92" speedRelative="0.57" departed="7" arrived="0" entered="17" left="24" laneChangedFrom="0" laneChangedTo="0"/>
        <edge id="-31905190#0" sampledSeconds="161.56" traveltime="8.89" overlapTraveltime="9.70" density="2.45" laneDensity="2.45" occupancy="0.92" waitingTime="0.00" timeLoss="25.39" speed="10.00" speedRelative="0.72" departed="5" arrived="4" entered="15" left="16" laneChangedFrom="0" laneChangedTo="0"/>
        <edge id="-31905190#3" sampledSeconds="314.01" traveltime="18.60" overlapTraveltime="19.04" density="2.48" laneDensity="2.48" occupancy="0.78" waitingTime="0.00" timeLoss="20.24" speed="9.52" speedRelative="0.69" departed="6" arrived="2" entered="14" left="17" laneChangedFrom="0" laneChangedTo="0"/>
        <edge id="-31905195#1" sampledSeconds="123.88" traveltime="8.55" overlapTraveltime="9.33" density="2.23" laneDensity="2.23" occupancy="0.87" waitingTime="0.00" timeLoss="28.69" speed="8.84" speedRelative="0.64" departed="2" arrived="3" entered="12" left="11" laneChangedFrom="0" laneChangedTo="0"/>
        <edge id="-31905195#2" sampledSeconds="269.68" traveltime="16.64" overlapTraveltime="17.63" density="3.32" laneDensity="3.32" occupancy="1.67" waitingTime="79.00" timeLoss="129.78" speed="6.79" speedRelative="0.49" departed="7" arrived="2" entered="13" left="18" laneChangedFrom="0" laneChangedTo="0" teleported="2"/>
        <edge id="-31905201#2" sampledSeconds="708.60" traveltime="26.56" overlapTraveltime="27.29" density="2.63" laneDensity="2.63" occupancy="1.42" waitingTime="77.00" timeLoss="149.47" speed="14.09" speedRelative="0.51" departed="7" arrived="3" entered="22" left="25" laneChangedFrom="0" laneChangedTo="0" teleported="1"/>
        <edge id="-31905214" sampledSeconds="1847.77" traveltime="31.53" overlapTraveltime="33.01" density="21.88" laneDensity="21.88" occupancy="9.88" waitingTime="1103.00" timeLoss="1404.00" speed="3.74" speedRelative="0.13" departed="6" arrived="1" entered="54" left="56" laneChangedFrom="0" laneChangedTo="0" teleported="7"/>
        <edge id="-322191552" sampledSeconds="5235.82" traveltime="39.07" overlapTraveltime="39.68" density="20.84" laneDensity="20.84" occupancy="8.43" waitingTime="423.00" timeLoss="2196.99" speed="9.02" speedRelative="0.32" departed="4" arrived="2" entered="147" left="125" laneChangedFrom="0" laneChangedTo="0" teleported="11"/>
        <edge id="-442885101#0" sampledSeconds="4865.09" traveltime="35.83" overlapTraveltime="36.86" density="52.62" laneDensity="26.31" occupancy="12.41" waitingTime="2667.00" timeLoss="3671.37" speed="3.66" speedRelative="0.13" departed="9" arrived="3" entered="134" left="127" laneChangedFrom="64" laneChangedTo="65" teleported="36"/>
        <edge id="-442885101#1" sampledSeconds="629.05" traveltime="3.39" overlapTraveltime="4.27" density="24.47" laneDensity="12.23" occupancy="5.32" waitingTime="43.00" timeLoss="232.80" speed="9.72" speedRelative="0.35" departed="9" arrived="7" entered="147" left="144" laneChangedFrom="9" laneChangedTo="9"/>
        <edge id="-442885101#2" sampledSeconds="769.32" traveltime="5.27" overlapTraveltime="5.75" density="22.02" laneDensity="11.01" occupancy="4.25" waitingTime="8.00" timeLoss="286.65" speed="9.33" speedRelative="0.34" departed="9" arrived="3" entered="132" left="132" laneChangedFrom="16" laneChangedTo="16"/>
        <edge id="-442885355#1" sampledSeconds="1031.72" traveltime="9.59" overlapTraveltime="11.15" density="22.96" laneDensity="22.96" occupancy="10.32" waitingTime="285.00" timeLoss="583.13" speed="6.12" speedRelative="0.22" departed="12" arrived="1" entered="90" left="100" laneChangedFrom="0" laneChangedTo="0" teleported="4"/>