<?xml version="1.0" encoding="UTF-8"?>

<!-- generated on 2025-08-20 08:47:04 by Eclipse SUMO GUI Version 1.23.1
<sumoConfiguration xmlns:xsi="http://www.w3.org/2001/XMLSchema-instance" xsi:noNamespaceSchemaLocation="http://sumo.dlr.de/xsd/sumoConfiguration.xsd">

    <input>
        <net-file value="src\PhuQuoc/phuquoc.net.xml"/>
        <route-files value="src\PhuQuoc/phuquoc.rou.xml,src\PhuQuoc/phuquoc-demo.rou.xml"/>
        <additional-files value="src\PhuQuoc/detector.add.xml"/>
    </input>

    <output>
        <tripinfo-output value="src\PhuQuoc/../../output/tripinfo_baseline.xml"/>
        <vehroute-output value="src\PhuQuoc/../../output/vehroutes_baseline.xml"/>
        <edgedata-output value="src\PhuQuoc/../../output/edgedata_baseline.xml"/>
    </output>

    <time>
        <step-length value="1"/>
    </time>

    <processing>
        <lateral-resolution value="0.5"/>
        <ignore-route-errors value="true"/>
        <time-to-teleport value="50"/>
        <tls.actuated.jam-threshold value="30"/>
    </processing>

    <routing>
        <device.rerouting.adaptation-steps value="18"/>
        <device.rerouting.adaptation-interval value="10"/>
    </routing>

    <report>
        <verbose value="true"/>
        <duration-log.statistics value="true"/>
        <no-step-log value="true"/>
    </report>

    <traci_server>
        <remote-port value="8814"/>
    </traci_server>

    <gui_only>
        <gui-settings-file value="src\PhuQuoc/phuquoc.view.xml"/>
        <start value="true"/>
    </gui_only>

</sumoConfiguration>
-->

<meandata xmlns:xsi="http://www.w3.org/2001/XMLSchema-instance" xsi:noNamespaceSchemaLocation="http://sumo.dlr.de/xsd/meandata_file.xsd">
    <interval begin="0.00" end="3000.00" id="DEFAULT_EDGEDATA">
        <edge id="-100954129#0" sampledSeconds="7367.80" traveltime="22.73" overlapTraveltime="24.00" density="41.88" laneDensity="41.88" occupancy="17.19" waitingTime="3700.00" timeLoss="5602.36" speed="2.62" speedRelative="0.19" departed="26" arrived="15" entered="324" left="320" laneChangedFrom="0" laneChangedTo="0" teleported="48"/>
        <edge id="-100954129#1" sampledSeconds="2873.33" traveltime="9.10" overlapTraveltime="9.84" density="18.06" laneDensity="18.06" occupancy="7.45" waitingTime="488.00" timeLoss="1347.67" speed="5.85" speedRelative="0.42" departed="26" arrived="13" entered="300" left="300" laneChangedFrom="0" laneChangedTo="0" teleported="10"/>
        <edge id="-100954129#3" sampledSeconds="8415.90" traveltime="25.46" overlapTraveltime="26.54" density="41.18" laneDensity="41.18" occupancy="19.15" waitingTime="4346.00" timeLoss="6549.83" speed="2.75" speedRelative="0.20" departed="18" arrived="13" entered="348" left="344" laneChangedFrom="0" laneChangedTo="0" teleported="51"/>
        <edge id="-100954129#4" sampledSeconds="2698.62" traveltime="8.15" overlapTraveltime="8.84" density="16.85" laneDensity="16.85" occupancy="7.39" waitingTime="671.00" timeLoss="1260.90" speed="6.58" speedRelative="0.47" departed="21" arrived="16" entered="310" left="310" laneChangedFrom="0" laneChangedTo="0" teleported="16"/>
        <edge id="-100954129#5" sampledSeconds="4784.38" traveltime="16.47" overlapTraveltime="16.99" density="10.01" laneDensity="10.01" occupancy="4.19" waitingTime="91.00" timeLoss="1126.40" speed="9.64" speedRelative="0.69" departed="23" arrived="20" entered="292" left="289" laneChangedFrom="0" laneChangedTo="0" teleported="4"/>
        <edge id="-100954163#8" sampledSeconds="15.87" traveltime="2.93" overlapTraveltime="3.18" density="0.13" laneDensity="0.13" occupancy="0.04" waitingTime="0.00" timeLoss="1.12" speed="13.63" speedRelative="0.98" departed="0" arrived="5" entered="5" left="0" laneChangedFrom="0" laneChangedTo="0"/>
        <edge id="-100954163#9" sampledSeconds="631.02" traveltime="18.95" overlapTraveltime="20.07" density="1.09" laneDensity="1.09" occupancy="0.41" waitingTime="0.00" timeLoss="88.16" speed="9.83" speedRelative="0.71" departed="27" arrived="6" entered="20" left="41" laneChangedFrom="0" laneChangedTo="0"/>
        <edge id="-100954245#13" sampledSeconds="7575.91" traveltime="118.84" overlapTraveltime="120.40" density="1.74" laneDensity="1.74" occupancy="0.76" waitingTime="798.00" timeLoss="1840.72" speed="12.12" speedRelative="0.55" departed="23" arrived="10" entered="53" left="59" laneChangedFrom="0" laneChangedTo="0" teleported="6"/>
        <edge id="-1056899464#0" sampledSeconds="5403.71" traveltime="16.97" overlapTraveltime="19.31" density="22.72" laneDensity="22.72" occupancy="9.62" waitingTime="1519.00" timeLoss="3457.85" speed="4.35" speedRelative="0.31" departed="21" arrived="6" entered="282" left="287" laneChangedFrom="0" laneChangedTo="0" teleported="19"/>
        <edge id="-1056899464#1" sampledSeconds="2684.63" traveltime="8.20" overlapTraveltime="8.67" density="9.97" laneDensity="9.97" occupancy="4.07" waitingTime="6.00" timeLoss="353.92" speed="10.87" speedRelative="0.78" departed="30" arrived="12" entered="293" left="310" laneChangedFrom="0" laneChangedTo="0"/>
        <edge id="-1117528626#0" sampledSeconds="419.44" traveltime="56.03" overlapTraveltime="61.09" density="0.53" laneDensity="0.53" occupancy="0.31" waitingTime="224.00" timeLoss="299.29" speed="4.38" speedRelative="0.20" departed="17" arrived="0" entered="0" left="16" laneChangedFrom="0" laneChangedTo="0" teleported="2"/>
        <edge id="-1117528626#1" sampledSeconds="2294.60" traveltime="55.27" overlapTraveltime="56.02" density="1.72" laneDensity="1.72" occupancy="0.67" waitingTime="738.00" timeLoss="995.89" speed="8.02" speedRelative="0.36" departed="17" arrived="16" entered="33" left="34" laneChangedFrom="0" laneChangedTo="0" teleported="13"/>
        <edge id="-1117528627#1" sampledSeconds="90.25" traveltime="17.88" overlapTraveltime="18.13" density="0.16" laneDensity="0.16" occupancy="0.05" waitingTime="0.00" timeLoss="8.07" speed="10.86" speedRelative="0.39" departed="0" arrived="5" entered="5" left="0" laneChangedFrom="0" laneChangedTo="0"/>
        <edge id="-1117528627#2" sampledSeconds="2114.21" traveltime="50.73" overlapTraveltime="52.31" density="1.59" laneDensity="1.59" occupancy="0.67" waitingTime="667.00" timeLoss="920.57" speed="8.57" speedRelative="0.31" departed="22" arrived="13" entered="32" left="37" laneChangedFrom="0" laneChangedTo="0" teleported="2"/>
        <edge id="-1135316108" sampledSeconds="17595.50" traveltime="69.07" overlapTraveltime="69.31" density="5.62" laneDensity="5.62" occupancy="2.23" waitingTime="0.00" timeLoss="1280.84" speed="15.11" speedRelative="0.68" departed="25" arrived="12" entered="244" left="254" laneChangedFrom="0" laneChangedTo="0"/>
        <edge id="-1135316109" sampledSeconds="33721.10" traveltime="159.27" overlapTraveltime="161.11" density="52.90" laneDensity="52.90" occupancy="24.93" waitingTime="19787.18" timeLoss="30718.38" speed="1.35" speedRelative="0.06" departed="25" arrived="8" entered="272" left="255" laneChangedFrom="0" laneChangedTo="0" teleported="62"/>
        <edge id="-1149576119" sampledSeconds="1409.43" traveltime="32.24" overlapTraveltime="48.40" density="580.01" laneDensity="580.01" occupancy="42.53" waitingTime="1322.00" timeLoss="1387.13" speed="0.12" speedRelative="0.01" departed="18" arrived="16" entered="57" left="59" laneChangedFrom="0" laneChangedTo="0" teleported="22"/>
        <edge id="-1149578009" sampledSeconds="617.95" traveltime="30.23" overlapTraveltime="54.64" density="208.07" laneDensity="208.07" occupancy="18.52" waitingTime="584.00" timeLoss="608.76" speed="0.11" speedRelative="0.00" departed="14" arrived="11" entered="23" left="26" laneChangedFrom="0" laneChangedTo="0" teleported="15"/>
        <edge id="-1149578943" sampledSeconds="1375.03" traveltime="24.81" overlapTraveltime="36.65" density="204.62" laneDensity="204.62" occupancy="39.65" waitingTime="1220.47" timeLoss="1339.85" speed="0.19" speedRelative="0.01" departed="22" arrived="4" entered="64" left="81" laneChangedFrom="0" laneChangedTo="0" teleported="13"/>
        <edge id="-1149578944" sampledSeconds="1157.27" traveltime="20.65" overlapTraveltime="26.54" density="1168.96" laneDensity="1168.96" occupancy="30.61" waitingTime="1043.00" timeLoss="1129.44" speed="0.15" speedRelative="0.01" departed="29" arrived="11" entered="54" left="71" laneChangedFrom="0" laneChangedTo="0" teleported="10"/>
        <edge id="-1149578945" sampledSeconds="952.54" traveltime="42.86" overlapTraveltime="49.73" density="429.07" laneDensity="429.07" occupancy="29.19" waitingTime="912.00" timeLoss="938.89" speed="0.09" speedRelative="0.00" departed="14" arrived="4" entered="57" left="65" laneChangedFrom="0" laneChangedTo="0" teleported="21"/>
        <edge id="-1149579534" sampledSeconds="1329.48" traveltime="110.49" overlapTraveltime="80.71" density="2014.36" laneDensity="2014.36" occupancy="31.98" waitingTime="1306.16" timeLoss="1319.91" speed="0.05" speedRelative="0.00" departed="15" arrived="3" entered="37" left="49" laneChangedFrom="0" laneChangedTo="0" teleported="25"/>
        <edge id="-1149579535" sampledSeconds="1679.45" traveltime="42.91" overlapTraveltime="72.38" density="589.28" laneDensity="589.28" occupancy="50.73" waitingTime="1565.00" timeLoss="1659.15" speed="0.09" speedRelative="0.00" departed="24" arrived="10" entered="64" left="78" laneChangedFrom="0" laneChangedTo="0" teleported="26"/>
        <edge id="-1149580108" sampledSeconds="1172.33" traveltime="29.72" overlapTraveltime="47.24" density="281.13" laneDensity="281.13" occupancy="36.30" waitingTime="1075.00" timeLoss="1149.53" speed="0.15" speedRelative="0.01" departed="14" arrived="10" entered="63" left="66" laneChangedFrom="0" laneChangedTo="0" teleported="15"/>
        <edge id="-1149580109" sampledSeconds="1150.44" traveltime="33.14" overlapTraveltime="44.25" density="1917.40" laneDensity="1917.40" occupancy="24.75" waitingTime="1083.19" timeLoss="1132.54" speed="0.10" speedRelative="0.00" departed="17" arrived="10" entered="43" left="50" laneChangedFrom="0" laneChangedTo="0" teleported="12"/>
        <edge id="-1149580110" sampledSeconds="825.97" traveltime="24.80" overlapTraveltime="33.56" density="1376.62" laneDensity="1376.62" occupancy="18.50" waitingTime="769.99" timeLoss="806.40" speed="0.14" speedRelative="0.01" departed="13" arrived="11" entered="46" left="48" laneChangedFrom="0" laneChangedTo="0" teleported="12"/>
        <edge id="-1149580308" sampledSeconds="824.07" traveltime="25.36" overlapTraveltime="43.95" density="259.14" laneDensity="259.14" occupancy="24.78" waitingTime="754.00" timeLoss="805.97" speed="0.16" speedRelative="0.01" departed="10" arrived="10" entered="41" left="40" laneChangedFrom="0" laneChangedTo="0" teleported="12"/>
        <edge id="-1149581388" sampledSeconds="4777.78" traveltime="13.35" overlapTraveltime="13.84" density="11.53" laneDensity="11.53" occupancy="4.78" waitingTime="0.00" timeLoss="1526.59" speed="10.30" speedRelative="0.46" departed="27" arrived="4" entered="393" left="414" laneChangedFrom="0" laneChangedTo="0"/>
        <edge id="-1149582046#3" sampledSeconds="4094.43" traveltime="161.16" overlapTraveltime="161.36" density="0.68" laneDensity="0.34" occupancy="0.11" waitingTime="0.00" timeLoss="214.05" speed="12.54" speedRelative="0.45" departed="0" arrived="25" entered="26" left="0" laneChangedFrom="6" laneChangedTo="8"/>
        <edge id="-1270367191#1" sampledSeconds="12876.73" traveltime="29.37" overlapTraveltime="30.78" density="16.98" laneDensity="16.98" occupancy="6.51" waitingTime="1200.00" timeLoss="5855.02" speed="8.34" speedRelative="0.30" departed="19" arrived="3" entered="427" left="422" laneChangedFrom="0" laneChangedTo="0" teleported="33"/>
        <edge id="-1270367191#2" sampledSeconds="2433.28" traveltime="2.79" overlapTraveltime="7.15" density="197.35" laneDensity="197.35" occupancy="47.57" waitingTime="1596.00" timeLoss="2162.56" speed="1.31" speedRelative="0.05" departed="35" arrived="9" entered="544" left="561" laneChangedFrom="0" laneChangedTo="0" teleported="5"/>
        <edge id="-1307054560#0" sampledSeconds="10700.83" traveltime="38.13" overlapTraveltime="42.01" density="126.89" laneDensity="126.89" occupancy="58.64" waitingTime="7948.00" timeLoss="10029.38" speed="0.80" speedRelative="0.03" departed="23" arrived="5" entered="330" left="345" laneChangedFrom="0" laneChangedTo="0" teleported="83"/>
        <edge id="-1307054560#1" sampledSeconds="8813.23" traveltime="26.16" overlapTraveltime="31.35" density="57.48" laneDensity="57.48" occupancy="31.02" waitingTime="4921.68" timeLoss="7689.15" speed="1.83" speedRelative="0.07" departed="25" arrived="4" entered="319" left="339" laneChangedFrom="0" laneChangedTo="0" teleported="44"/>
        <edge id="-1307054560#2" sampledSeconds="9517.94" traveltime="27.92" overlapTraveltime="30.56" density="30.15" laneDensity="30.15" occupancy="15.12" waitingTime="3931.00" timeLoss="7187.44" speed="3.62" speedRelative="0.13" departed="25" arrived="7" entered="312" left="327" laneChangedFrom="0" laneChangedTo="0" teleported="25"/>
        <edge id="-1307054560#3" sampledSeconds="3652.84" traveltime="10.05" overlapTraveltime="11.13" density="11.42" laneDensity="11.42" occupancy="4.50" waitingTime="353.00" timeLoss="1221.44" speed="9.98" speedRelative="0.36" departed="22" arrived="7" entered="319" left="332" laneChangedFrom="0" laneChangedTo="0" teleported="5"/>
        <edge id="-1307054560#4" sampledSeconds="3696.34" traveltime="10.15" overlapTraveltime="11.33" density="10.49" laneDensity="10.49" occupancy="4.35" waitingTime="483.00" timeLoss="1008.40" speed="10.78" speedRelative="0.39" departed="25" arrived="7" entered="317" left="332" laneChangedFrom="0" laneChangedTo="0" teleported="2"/>
        <edge id="-1307054560#5" sampledSeconds="4319.28" traveltime="12.12" overlapTraveltime="13.27" density="11.61" laneDensity="11.61" occupancy="4.41" waitingTime="508.00" timeLoss="1466.86" speed="9.66" speedRelative="0.35" departed="25" arrived="9" entered="321" left="333" laneChangedFrom="0" laneChangedTo="0" teleported="3"/>
        <edge id="-152227686#0" sampledSeconds="1425.56" traveltime="5.46" overlapTraveltime="5.90" density="8.55" laneDensity="8.55" occupancy="3.36" waitingTime="56.00" timeLoss="256.23" speed="10.17" speedRelative="0.73" departed="29" arrived="16" entered="227" left="240" laneChangedFrom="0" laneChangedTo="0"/>
        <edge id="-152227686#1" sampledSeconds="879.03" traveltime="3.13" overlapTraveltime="3.99" density="14.75" laneDensity="14.75" occupancy="6.29" waitingTime="186.00" timeLoss="418.12" speed="6.31" speedRelative="0.45" departed="25" arrived="14" entered="214" left="225" laneChangedFrom="0" laneChangedTo="0" teleported="1"/>
        <edge id="-152227686#2" sampledSeconds="285.80" traveltime="1.87" overlapTraveltime="5.42" density="23.76" laneDensity="23.76" occupancy="4.74" waitingTime="206.00" timeLoss="247.04" speed="1.40" speedRelative="0.10" departed="22" arrived="10" entered="34" left="45" laneChangedFrom="0" laneChangedTo="0"/>
        <edge id="-152227686#6" sampledSeconds="928.15" traveltime="25.27" overlapTraveltime="25.82" density="1.07" laneDensity="1.07" occupancy="0.39" waitingTime="18.00" timeLoss="105.29" speed="11.34" speedRelative="0.82" departed="18" arrived="14" entered="28" left="31" laneChangedFrom="0" laneChangedTo="0"/>
        <edge id="-152227697#2" sampledSeconds="95.01" traveltime="13.55" overlapTraveltime="13.74" density="0.14" laneDensity="0.14" occupancy="0.04" waitingTime="0.00" timeLoss="10.13" speed="16.28" speedRelative="0.73" departed="0" arrived="7" entered="7" left="0" laneChangedFrom="0" laneChangedTo="0"/>
        <edge id="-152227697#3" sampledSeconds="1450.03" traveltime="6.67" overlapTraveltime="9.55" density="140.10" laneDensity="140.10" occupancy="33.10" waitingTime="1003.84" timeLoss="1277.49" speed="0.92" speedRelative="0.04" departed="25" arrived="11" entered="254" left="266" laneChangedFrom="0" laneChangedTo="0" teleported="4"/>
        <edge id="-155315678#4" sampledSeconds="28918.20" traveltime="110.50" overlapTraveltime="111.95" density="14.89" laneDensity="14.89" occupancy="7.97" waitingTime="10284.00" timeLoss="19105.84" speed="5.83" speedRelative="0.26" departed="17" arrived="16" entered="262" left="256" laneChangedFrom="0" laneChangedTo="0" teleported="91"/>
        <edge id="-155315678#5" sampledSeconds="9196.73" traveltime="41.52" overlapTraveltime="43.23" density="11.37" laneDensity="11.37" occupancy="4.33" waitingTime="2970.00" timeLoss="4868.19" speed="6.33" speedRelative="0.28" departed="22" arrived="14" entered="205" left="211" laneChangedFrom="0" laneChangedTo="0" teleported="24"/>
        <edge id="-155315680#1" sampledSeconds="1445.19" traveltime="11.46" overlapTraveltime="13.61" density="4.84" laneDensity="4.84" occupancy="1.86" waitingTime="254.00" timeLoss="496.23" speed="7.64" speedRelative="0.55" departed="26" arrived="8" entered="95" left="113" laneChangedFrom="0" laneChangedTo="0" teleported="1"/>
        <edge id="-155315682" sampledSeconds="1563.39" traveltime="12.04" overlapTraveltime="12.84" density="5.09" laneDensity="5.09" occupancy="1.81" waitingTime="68.00" timeLoss="459.58" speed="8.27" speedRelative="0.60" departed="25" arrived="20" entered="109" left="114" laneChangedFrom="0" laneChangedTo="0" teleported="1"/>
        <edge id="-155315683" sampledSeconds="4284.87" traveltime="52.46" overlapTraveltime="54.08" density="7.07" laneDensity="7.07" occupancy="4.38" waitingTime="2265.00" timeLoss="3047.88" speed="3.85" speedRelative="0.28" departed="26" arrived="13" entered="69" left="74" laneChangedFrom="0" laneChangedTo="0" teleported="11"/>
        <edge id="-155315688#0" sampledSeconds="1656.99" traveltime="17.51" overlapTraveltime="18.55" density="8.30" laneDensity="8.30" occupancy="3.17" waitingTime="708.00" timeLoss="1105.11" speed="3.80" speedRelative="0.27" departed="21" arrived="17" entered="79" left="81" laneChangedFrom="0" laneChangedTo="0" teleported="7"/>
        <edge id="-155315688#1" sampledSeconds="1562.80" traveltime="11.04" overlapTraveltime="12.72" density="5.65" laneDensity="5.65" occupancy="2.23" waitingTime="243.00" timeLoss="614.06" speed="7.59" speedRelative="0.55" departed="16" arrived="7" entered="117" left="126" laneChangedFrom="0" laneChangedTo="0" teleported="6"/>
        <edge id="-155315693#2" sampledSeconds="6305.44" traveltime="45.46" overlapTraveltime="46.40" density="7.66" laneDensity="7.66" occupancy="3.23" waitingTime="1950.00" timeLoss="3063.64" speed="6.00" speedRelative="0.43" departed="25" arrived="18" entered="126" left="129" laneChangedFrom="0" laneChangedTo="0" teleported="15"/>
        <edge id="-155315693#8" sampledSeconds="803.69" traveltime="42.37" overlapTraveltime="42.92" density="0.65" laneDensity="0.65" occupancy="0.18" waitingTime="0.00" timeLoss="51.34" speed="9.62" speedRelative="0.69" departed="34" arrived="0" entered="0" left="34" laneChangedFrom="0" laneChangedTo="0"/>
        <edge id="-155315694#2" sampledSeconds="6358.57" traveltime="48.25" overlapTraveltime="49.84" density="9.52" laneDensity="9.52" occupancy="5.07" waitingTime="2836.00" timeLoss="3867.93" speed="4.58" speedRelative="0.33" departed="26" arrived="22" entered="117" left="114" laneChangedFrom="0" laneChangedTo="0" teleported="34"/>
        <edge id="-155315694#3" sampledSeconds="520.16" traveltime="5.46" overlapTraveltime="6.35" density="4.23" laneDensity="4.23" occupancy="1.67" waitingTime="48.00" timeLoss="189.77" speed="7.21" speedRelative="0.52" departed="27" arrived="19" entered="71" left="79" laneChangedFrom="0" laneChangedTo="0"/>
        <edge id="-155315695#0" sampledSeconds="37951.64" traveltime="250.92" overlapTraveltime="255.36" density="122.18" laneDensity="122.18" occupancy="49.98" waitingTime="29400.66" timeLoss="36425.00" speed="0.42" speedRelative="0.03" departed="23" arrived="4" entered="219" left="222" laneChangedFrom="0" laneChangedTo="0" teleported="107"/>
        <edge id="-155315695#1" sampledSeconds="5505.23" traveltime="41.23" overlapTraveltime="42.52" density="44.64" laneDensity="44.64" occupancy="20.47" waitingTime="3968.00" timeLoss="5020.42" speed="1.08" speedRelative="0.08" departed="31" arrived="10" entered="131" left="152" laneChangedFrom="0" laneChangedTo="0" teleported="30"/>
        <edge id="-155315695#3" sampledSeconds="3526.97" traveltime="26.37" overlapTraveltime="28.42" density="4.81" laneDensity="4.81" occupancy="1.91" waitingTime="367.00" timeLoss="1062.94" speed="8.75" speedRelative="0.63" departed="23" arrived="14" entered="114" left="123" laneChangedFrom="0" laneChangedTo="0" teleported="4"/>
        <edge id="-155315695#4" sampledSeconds="896.40" traveltime="6.38" overlapTraveltime="7.13" density="5.85" laneDensity="5.85" occupancy="2.16" waitingTime="70.00" timeLoss="305.87" speed="7.75" speedRelative="0.56" departed="31" arrived="15" entered="110" left="125" laneChangedFrom="0" laneChangedTo="0" teleported="2"/>
        <edge id="-155315711" sampledSeconds="9808.51" traveltime="75.15" overlapTraveltime="78.57" density="40.68" laneDensity="40.68" occupancy="21.34" waitingTime="7272.00" timeLoss="8946.43" speed="1.09" speedRelative="0.08" departed="23" arrived="10" entered="136" left="137" laneChangedFrom="0" laneChangedTo="0" teleported="57"/>
        <edge id="-155315719#0" sampledSeconds="76095.83" traveltime="457.45" overlapTraveltime="460.73" density="54.10" laneDensity="54.10" occupancy="28.43" waitingTime="44066.26" timeLoss="71207.60" speed="1.03" speedRelative="0.05" departed="29" arrived="8" entered="260" left="206" laneChangedFrom="0" laneChangedTo="0" teleported="104"/>
        <edge id="-155315719#1" sampledSeconds="25802.64" traveltime="77.28" overlapTraveltime="78.91" density="53.88" laneDensity="53.88" occupancy="24.07" waitingTime="13030.00" timeLoss="22126.82" speed="2.08" speedRelative="0.09" departed="15" arrived="9" entered="405" left="387" laneChangedFrom="0" laneChangedTo="0" teleported="54"/>
        <edge id="-155315719#15" sampledSeconds="784.20" traveltime="57.12" overlapTraveltime="57.65" density="0.30" laneDensity="0.30" occupancy="0.12" waitingTime="0.00" timeLoss="36.50" speed="15.33" speedRelative="0.69" departed="24" arrived="0" entered="0" left="24" laneChangedFrom="0" laneChangedTo="0"/>
        <edge id="-155315719#2" sampledSeconds="15234.87" traveltime="42.95" overlapTraveltime="45.02" density="46.82" laneDensity="46.82" occupancy="20.87" waitingTime="5726.00" timeLoss="12686.51" speed="2.51" speedRelative="0.11" departed="22" arrived="13" entered="403" left="396" laneChangedFrom="0" laneChangedTo="0" teleported="20"/>
        <edge id="-155315719#8" sampledSeconds="17770.51" traveltime="72.64" overlapTraveltime="73.83" density="16.08" laneDensity="16.08" occupancy="8.00" waitingTime="4675.00" timeLoss="11834.14" speed="5.06" speedRelative="0.23" departed="23" arrived="15" entered="249" left="228" laneChangedFrom="0" laneChangedTo="0" teleported="38"/>
        <edge id="-155775198#0" sampledSeconds="16987.96" traveltime="57.74" overlapTraveltime="58.89" density="14.98" laneDensity="14.98" occupancy="6.47" waitingTime="5262.00" timeLoss="9011.01" speed="6.50" speedRelative="0.23" departed="20" arrived="15" entered="287" left="274" laneChangedFrom="0" laneChangedTo="0" teleported="63"/>
        <edge id="-155775198#3" sampledSeconds="33883.70" traveltime="83.48" overlapTraveltime="84.79" density="28.77" laneDensity="28.77" occupancy="13.72" waitingTime="13877.00" timeLoss="22631.36" speed="4.69" speedRelative="0.17" departed="28" arrived="12" entered="405" left="395" laneChangedFrom="0" laneChangedTo="0" teleported="102"/>
        <edge id="-155775198#4" sampledSeconds="6255.95" traveltime="16.85" overlapTraveltime="18.14" density="65.91" laneDensity="65.91" occupancy="24.98" waitingTime="3910.00" timeLoss="5365.94" speed="1.97" speedRelative="0.07" departed="23" arrived="6" entered="349" left="366" laneChangedFrom="0" laneChangedTo="0" teleported="31"/>
        <edge id="-155775198#5" sampledSeconds="2924.68" traveltime="3.76" overlapTraveltime="5.85" density="90.94" laneDensity="90.94" occupancy="34.33" waitingTime="1220.00" timeLoss="2320.19" speed="2.73" speedRelative="0.10" departed="17" arrived="14" entered="583" left="586" laneChangedFrom="0" laneChangedTo="0" teleported="11"/>
        <edge id="-155775198#6" sampledSeconds="13724.61" traveltime="25.24" overlapTraveltime="26.91" density="23.09" laneDensity="23.09" occupancy="9.68" waitingTime="3060.00" timeLoss="6905.06" speed="7.53" speedRelative="0.27" departed="26" arrived="11" entered="511" left="519" laneChangedFrom="0" laneChangedTo="0" teleported="49"/>
        <edge id="-155775200#1" sampledSeconds="428747.02" traveltime="677.23" overlapTraveltime="680.66" density="192.94" laneDensity="192.94" occupancy="101.78" waitingTime="240666.00" timeLoss="395860.98" speed="1.10" speedRelative="0.04" departed="9" arrived="4" entered="1038" left="706" laneChangedFrom="0" laneChangedTo="0" teleported="356"/>
        <edge id="-163652291" sampledSeconds="8298.31" traveltime="55.95" overlapTraveltime="60.85" density="76.90" laneDensity="76.90" occupancy="43.48" waitingTime="6516.00" timeLoss="7902.24" speed="0.69" speedRelative="0.02" departed="29" arrived="17" entered="167" left="178" laneChangedFrom="0" laneChangedTo="0" teleported="80"/>
        <edge id="-205021436#0" sampledSeconds="191530.14" traveltime="356.99" overlapTraveltime="360.18" density="114.02" laneDensity="114.02" occupancy="59.63" waitingTime="88597.66" timeLoss="170662.36" speed="1.57" speedRelative="0.06" departed="13" arrived="4" entered="744" left="654" laneChangedFrom="0" laneChangedTo="0" teleported="227"/>
        <edge id="-205021436#1" sampledSeconds="24208.53" traveltime="41.79" overlapTraveltime="44.45" density="78.47" laneDensity="78.47" occupancy="45.00" waitingTime="10747.00" timeLoss="20276.00" speed="2.45" speedRelative="0.09" departed="10" arrived="2" entered="677" left="664" laneChangedFrom="0" laneChangedTo="0" teleported="30"/>
        <edge id="-271412010" sampledSeconds="3119.94" traveltime="34.45" overlapTraveltime="35.61" density="3.22" laneDensity="3.22" occupancy="1.57" waitingTime="494.00" timeLoss="902.52" speed="9.22" speedRelative="0.66" departed="25" arrived="14" entered="74" left="85" laneChangedFrom="0" laneChangedTo="0" teleported="6"/>
        <edge id="-31905181#0" sampledSeconds="11981.47" traveltime="35.69" overlapTraveltime="37.12" density="26.25" laneDensity="26.25" occupancy="11.53" waitingTime="2639.00" timeLoss="7649.34" speed="4.22" speedRelative="0.30" departed="37" arrived="11" entered="314" left="334" laneChangedFrom="0" laneChangedTo="0" teleported="45"/>
        <edge id="-31905181#3" sampledSeconds="11706.76" traveltime="40.96" overlapTraveltime="41.50" density="11.62" laneDensity="11.62" occupancy="4.55" waitingTime="0.00" timeLoss="3820.68" speed="8.19" speedRelative="0.59" departed="33" arrived="12" entered="276" left="276" laneChangedFrom="0" laneChangedTo="0"/>
        <edge id="-31905190#0" sampledSeconds="907.33" traveltime="8.61" overlapTraveltime="9.33" density="3.26" laneDensity="3.26" occupancy="1.12" waitingTime="3.00" timeLoss="164.70" speed="10.34" speedRelative="0.74" departed="27" arrived="10" entered="85" left="101" laneChangedFrom="0" laneChangedTo="0"/>
        <edge id="-31905190#3" sampledSeconds="1911.38" traveltime="15.53" overlapTraveltime="16.24" density="3.58" laneDensity="3.58" occupancy="1.30" waitingTime="22.00" timeLoss="170.80" speed="11.20" speedRelative="0.81" departed="30" arrived="13" entered="100" left="116" laneChangedFrom="0" laneChangedTo="0"/>
        <edge id="-31905195#1" sampledSeconds="1238.84" traveltime="11.18" overlapTraveltime="12.17" density="5.29" laneDensity="5.29" occupancy="2.26" waitingTime="219.00" timeLoss="535.15" speed="6.80" speedRelative="0.49" departed="28" arrived="19" entered="91" left="97" laneChangedFrom="0" laneChangedTo="0" teleported="3"/>
        <edge id="-31905195#2" sampledSeconds="1756.51" traveltime="17.04" overlapTraveltime="18.71" density="5.12" laneDensity="5.12" occupancy="2.10" waitingTime="536.00" timeLoss="895.82" speed="6.35" speedRelative="0.46" departed="22" arrived="11" entered="85" left="96" laneChangedFrom="0" laneChangedTo="0" teleported="3"/>
        <edge id="-31905201#2" sampledSeconds="31373.76" traveltime="111.90" overlapTraveltime="114.50" density="27.59" laneDensity="27.59" occupancy="16.37" waitingTime="14388.17" timeLoss="24812.15" speed="3.36" speedRelative="0.12" departed="23" arrived="11" entered="308" left="282" laneChangedFrom="0" laneChangedTo="0" teleported="88"/>
        <edge id="-31905214" sampledSeconds="12711.71" traveltime="42.20" overlapTraveltime="43.65" density="35.63" laneDensity="35.63" occupancy="16.63" waitingTime="7994.00" timeLoss="10205.29" speed="2.83" speedRelative="0.10" departed="27" arrived="12" entered="286" left="289" laneChangedFrom="0" laneChangedTo="0" teleported="78"/>
        <edge id="-322191552" sampledSeconds="113973.10" traveltime="199.11" overlapTraveltime="200.49" density="107.35" laneDensity="107.35" occupancy="47.39" waitingTime="30582.00" timeLoss="98691.56" speed="1.79" speedRelative="0.06" departed="13" arrived="8" entered="959" left="901" laneChangedFrom="0" laneChangedTo="0" teleported="174"/>
        <edge id="-406038877" sampledSeconds="1633.79" traveltime="81.23" overlapTraveltime="82.06" density="1.39" laneDensity="1.39" occupancy="0.56" waitingTime="0.00" timeLoss="228.79" speed="4.82" speedRelative="0.87" departed="0" arrived="20" entered="20" left="0" laneChangedFrom="0" laneChangedTo="0"/>