<?xml version="1.0" encoding="UTF-8"?>

<!-- generated on 2025-08-20 06:43:14 by Eclipse SUMO GUI Version 1.23.1
<sumoConfiguration xmlns:xsi="http://www.w3.org/2001/XMLSchema-instance" xsi:noNamespaceSchemaLocation="http://sumo.dlr.de/xsd/sumoConfiguration.xsd">

    <input>
        <net-file value="PhuQuoc/phuquoc.net.xml"/>
        <route-files value="PhuQuoc/phuquoc.rou.xml,PhuQuoc/phuquoc-demo.rou.xml"/>
        <additional-files value="PhuQuoc/detector.add.xml"/>
    </input>

    <output>
        <tripinfo-output value="D:\He_thong_giao_thong_thich_ung\Algorithms_code\PC_Algorithms\output\tripinfo.xml"/>
        <vehroute-output value="D:\He_thong_giao_thong_thich_ung\Algorithms_code\PC_Algorithms\output\vehroutes.xml"/>
        <edgedata-output value="PhuQuoc/../../output/edgedata_baseline.xml"/>
    </output>

    <time>
        <step-length value="1"/>
    </time>

    <processing>
        <lateral-resolution value="0.5"/>
        <ignore-route-errors value="true"/>
        <time-to-teleport value="50"/>
        <tls.actuated.jam-threshold value="30"/>
    </processing>

    <routing>
        <device.rerouting.adaptation-steps value="18"/>
        <device.rerouting.adaptation-interval value="10"/>
    </routing>

    <report>
        <verbose value="true"/>
        <duration-log.statistics value="true"/>
        <no-step-log value="true"/>
    </report>

    <traci_server>
        <remote-port value="8814"/>
    </traci_server>

    <gui_only>
        <gui-settings-file value="PhuQuoc/phuquoc.view.xml"/>
        <start value="true"/>
    </gui_only>

</sumoConfiguration>
-->

<meandata xmlns:xsi="http://www.w3.org/2001/XMLSchema-instance" xsi:noNamespaceSchemaLocation="http://sumo.dlr.de/xsd/meandata_file.xsd">
    <interval begin="0.00" end="1200.00" id="DEFAULT_EDGEDATA">
        <edge id="-100954129#0" sampledSeconds="2300.08" traveltime="21.69" overlapTraveltime="23.02" density="32.69" laneDensity="32.69" occupancy="11.65" waitingTime="1215.00" timeLoss="1739.51" speed="2.71" speedRelative="0.20" departed="11" arrived="5" entered="102" left="97" laneChangedFrom="0" laneChangedTo="0" teleported="15"/>
        <edge id="-100954129#1" sampledSeconds="650.76" traveltime="6.45" overlapTraveltime="7.11" density="10.22" laneDensity="10.22" occupancy="3.64" waitingTime="8.00" timeLoss="188.44" speed="8.03" speedRelative="0.58" departed="8" arrived="2" entered="89" left="94" laneChangedFrom="0" laneChangedTo="0"/>
        <edge id="-100954129#3" sampledSeconds="2159.96" traveltime="18.84" overlapTraveltime="19.81" density="26.42" laneDensity="26.42" occupancy="11.52" waitingTime="945.00" timeLoss="1512.27" speed="3.67" speedRelative="0.26" departed="4" arrived="6" entered="114" left="108" laneChangedFrom="0" laneChangedTo="0" teleported="10"/>
        <edge id="-100954129#4" sampledSeconds="571.85" traveltime="5.26" overlapTraveltime="5.68" density="8.92" laneDensity="8.92" occupancy="3.44" waitingTime="0.00" timeLoss="92.42" speed="10.17" speedRelative="0.73" departed="6" arrived="9" entered="98" left="95" laneChangedFrom="0" laneChangedTo="0"/>
        <edge id="-100954129#5" sampledSeconds="1379.18" traveltime="15.51" overlapTraveltime="16.00" density="7.22" laneDensity="7.22" occupancy="3.17" waitingTime="1.00" timeLoss="271.40" speed="10.25" speedRelative="0.74" departed="11" arrived="8" entered="81" left="84" laneChangedFrom="0" laneChangedTo="0"/>
        <edge id="-100954163#9" sampledSeconds="179.99" traveltime="16.46" overlapTraveltime="17.62" density="0.78" laneDensity="0.78" occupancy="0.21" waitingTime="0.00" timeLoss="29.73" speed="11.14" speedRelative="0.80" departed="13" arrived="0" entered="3" left="16" laneChangedFrom="0" laneChangedTo="0"/>
        <edge id="-100954245#13" sampledSeconds="2219.76" traveltime="152.99" overlapTraveltime="154.49" density="1.27" laneDensity="1.27" occupancy="0.66" waitingTime="303.00" timeLoss="796.58" speed="9.45" speedRelative="0.43" departed="7" arrived="0" entered="11" left="15" laneChangedFrom="0" laneChangedTo="0" teleported="1"/>
        <edge id="-1056899464#0" sampledSeconds="779.76" traveltime="8.03" overlapTraveltime="9.13" density="8.20" laneDensity="8.20" occupancy="3.16" waitingTime="0.00" timeLoss="200.10" speed="9.16" speedRelative="0.66" departed="9" arrived="2" entered="81" left="88" laneChangedFrom="0" laneChangedTo="0"/>
        <edge id="-1056899464#1" sampledSeconds="711.51" traveltime="7.84" overlapTraveltime="8.25" density="6.60" laneDensity="6.60" occupancy="2.69" waitingTime="0.00" timeLoss="72.45" speed="11.42" speedRelative="0.82" departed="10" arrived="2" entered="82" left="88" laneChangedFrom="0" laneChangedTo="0"/>
        <edge id="-1117528626#0" sampledSeconds="140.85" traveltime="33.28" overlapTraveltime="41.30" density="0.45" laneDensity="0.45" occupancy="0.18" waitingTime="42.00" timeLoss="70.01" speed="6.44" speedRelative="0.29" departed="7" arrived="0" entered="0" left="7" laneChangedFrom="0" laneChangedTo="0"/>
        <edge id="-1117528626#1" sampledSeconds="784.96" traveltime="70.24" overlapTraveltime="71.57" density="1.47" laneDensity="1.47" occupancy="0.71" waitingTime="358.00" timeLoss="460.41" speed="6.29" speedRelative="0.28" departed="9" arrived="3" entered="7" left="13" laneChangedFrom="0" laneChangedTo="0" teleported="5"/>
        <edge id="-1117528627#1" sampledSeconds="65.36" traveltime="21.48" overlapTraveltime="21.75" density="0.28" laneDensity="0.28" occupancy="0.11" waitingTime="0.00" timeLoss="6.17" speed="9.08" speedRelative="0.33" departed="0" arrived="3" entered="3" left="0" laneChangedFrom="0" laneChangedTo="0"/>
        <edge id="-1117528627#2" sampledSeconds="838.89" traveltime="47.23" overlapTraveltime="49.49" density="1.57" laneDensity="1.57" occupancy="0.65" waitingTime="224.00" timeLoss="330.69" speed="9.06" speedRelative="0.33" departed="8" arrived="4" entered="13" left="17" laneChangedFrom="0" laneChangedTo="0"/>
        <edge id="-1135316108" sampledSeconds="2996.21" traveltime="65.11" overlapTraveltime="65.35" density="2.39" laneDensity="2.39" occupancy="1.01" waitingTime="0.00" timeLoss="207.38" speed="16.03" speedRelative="0.72" departed="8" arrived="6" entered="43" left="45" laneChangedFrom="0" laneChangedTo="0"/>
        <edge id="-1135316109" sampledSeconds="1372.03" traveltime="23.02" overlapTraveltime="24.25" density="5.38" laneDensity="5.38" occupancy="2.11" waitingTime="301.00" timeLoss="556.77" speed="8.93" speedRelative="0.40" departed="9" arrived="4" entered="54" left="57" laneChangedFrom="0" laneChangedTo="0" teleported="1"/>
        <edge id="-1149576119" sampledSeconds="547.82" traveltime="32.66" overlapTraveltime="45.13" density="563.60" laneDensity="563.60" occupancy="40.00" waitingTime="507.00" timeLoss="535.02" speed="0.14" speedRelative="0.01" departed="9" arrived="4" entered="18" left="23" laneChangedFrom="0" laneChangedTo="0" teleported="6"/>
        <edge id="-1149578009" sampledSeconds="173.35" traveltime="9.28" overlapTraveltime="28.56" density="145.92" laneDensity="145.92" occupancy="13.50" waitingTime="155.00" timeLoss="167.67" speed="0.21" speedRelative="0.01" departed="6" arrived="5" entered="9" left="10" laneChangedFrom="0" laneChangedTo="0" teleported="3"/>
        <edge id="-1149578943" sampledSeconds="529.70" traveltime="22.52" overlapTraveltime="27.55" density="197.06" laneDensity="197.06" occupancy="38.81" waitingTime="477.00" timeLoss="517.53" speed="0.19" speedRelative="0.01" departed="7" arrived="4" entered="21" left="24" laneChangedFrom="0" laneChangedTo="0" teleported="6"/>
        <edge id="-1149578944" sampledSeconds="450.77" traveltime="28.95" overlapTraveltime="37.71" density="1138.32" laneDensity="1138.32" occupancy="28.80" waitingTime="427.00" timeLoss="443.39" speed="0.10" speedRelative="0.00" departed="8" arrived="2" entered="17" left="22" laneChangedFrom="0" laneChangedTo="0" teleported="6"/>
        <edge id="-1149578945" sampledSeconds="326.36" traveltime="34.45" overlapTraveltime="26.10" density="367.53" laneDensity="367.53" occupancy="26.34" waitingTime="310.00" timeLoss="318.17" speed="0.15" speedRelative="0.01" departed="2" arrived="4" entered="29" left="26" laneChangedFrom="0" laneChangedTo="0" teleported="6"/>
        <edge id="-1149579534" sampledSeconds="415.48" traveltime="65.83" overlapTraveltime="51.03" density="1573.79" laneDensity="1573.79" occupancy="25.84" waitingTime="407.31" timeLoss="411.35" speed="0.06" speedRelative="0.00" departed="4" arrived="1" entered="17" left="20" laneChangedFrom="0" laneChangedTo="0" teleported="9"/>
        <edge id="-1149579535" sampledSeconds="506.70" traveltime="31.57" overlapTraveltime="50.63" density="444.47" laneDensity="444.47" occupancy="38.23" waitingTime="470.00" timeLoss="497.51" speed="0.12" speedRelative="0.01" departed="8" arrived="3" entered="25" left="30" laneChangedFrom="0" laneChangedTo="0" teleported="7"/>
        <edge id="-1149580108" sampledSeconds="662.13" traveltime="45.17" overlapTraveltime="72.94" density="396.96" laneDensity="396.96" occupancy="52.19" waitingTime="632.00" timeLoss="655.61" speed="0.09" speedRelative="0.00" departed="9" arrived="4" entered="35" left="40" laneChangedFrom="0" laneChangedTo="0" teleported="11"/>
        <edge id="-1149580109" sampledSeconds="529.34" traveltime="24.53" overlapTraveltime="33.34" density="2205.60" laneDensity="2205.60" occupancy="25.27" waitingTime="498.00" timeLoss="518.27" speed="0.14" speedRelative="0.01" departed="11" arrived="5" entered="22" left="28" laneChangedFrom="0" laneChangedTo="0" teleported="6"/>
        <edge id="-1149580110" sampledSeconds="411.26" traveltime="25.96" overlapTraveltime="36.74" density="1713.57" laneDensity="1713.57" occupancy="22.50" waitingTime="383.99" timeLoss="399.82" speed="0.14" speedRelative="0.01" departed="9" arrived="3" entered="18" left="23" laneChangedFrom="0" laneChangedTo="0" teleported="6"/>
        <edge id="-1149580308" sampledSeconds="231.38" traveltime="13.49" overlapTraveltime="17.82" density="181.90" laneDensity="181.90" occupancy="17.48" waitingTime="196.00" timeLoss="220.80" speed="0.34" speedRelative="0.02" departed="0" arrived="5" entered="19" left="14" laneChangedFrom="0" laneChangedTo="0" teleported="1"/>
        <edge id="-1149581388" sampledSeconds="1231.39" traveltime="12.08" overlapTraveltime="12.51" density="7.43" laneDensity="7.43" occupancy="2.91" waitingTime="0.00" timeLoss="350.37" speed="11.37" speedRelative="0.51" departed="7" arrived="0" entered="115" left="118" laneChangedFrom="0" laneChangedTo="0"/>
        <edge id="-1149582046#3" sampledSeconds="1463.17" traveltime="194.49" overlapTraveltime="194.62" density="0.60" laneDensity="0.30" occupancy="0.06" waitingTime="0.00" timeLoss="78.13" speed="10.39" speedRelative="0.37" departed="0" arrived="6" entered="9" left="0" laneChangedFrom="1" laneChangedTo="1"/>
        <edge id="-1270367191#1" sampledSeconds="3221.13" traveltime="27.23" overlapTraveltime="28.38" density="10.62" laneDensity="10.62" occupancy="4.18" waitingTime="159.00" timeLoss="1298.50" speed="9.05" speedRelative="0.33" departed="5" arrived="2" entered="113" left="115" laneChangedFrom="0" laneChangedTo="0" teleported="1"/>
        <edge id="-1270367191#2" sampledSeconds="1021.73" traveltime="4.18" overlapTraveltime="10.71" density="207.16" laneDensity="207.16" occupancy="43.13" waitingTime="795.00" timeLoss="947.42" speed="0.81" speedRelative="0.03" departed="13" arrived="2" entered="140" left="151" laneChangedFrom="0" laneChangedTo="0" teleported="6"/>
        <edge id="-1307054560#0" sampledSeconds="5913.94" traveltime="44.13" overlapTraveltime="48.11" density="175.32" laneDensity="175.32" occupancy="88.59" waitingTime="4315.00" timeLoss="5593.85" speed="0.70" speedRelative="0.03" departed="8" arrived="0" entered="193" left="199" laneChangedFrom="0" laneChangedTo="0" teleported="47"/>
        <edge id="-1307054560#1" sampledSeconds="7190.67" traveltime="41.72" overlapTraveltime="48.95" density="117.24" laneDensity="117.24" occupancy="62.72" waitingTime="4207.93" timeLoss="6621.85" speed="1.17" speedRelative="0.04" departed="12" arrived="1" entered="186" left="197" laneChangedFrom="0" laneChangedTo="0" teleported="37"/>
        <edge id="-1307054560#2" sampledSeconds="7948.13" traveltime="42.44" overlapTraveltime="46.78" density="62.94" laneDensity="62.94" occupancy="35.05" waitingTime="3667.00" timeLoss="6701.83" speed="2.38" speedRelative="0.09" departed="5" arrived="2" entered="182" left="185" laneChangedFrom="0" laneChangedTo="0" teleported="28"/>
        <edge id="-1307054560#3" sampledSeconds="1799.43" traveltime="9.03" overlapTraveltime="9.80" density="14.06" laneDensity="14.06" occupancy="5.53" waitingTime="101.00" timeLoss="453.11" speed="11.32" speedRelative="0.41" departed="8" arrived="1" entered="179" left="184" laneChangedFrom="0" laneChangedTo="0" teleported="1"/>
        <edge id="-1307054560#4" sampledSeconds="1657.11" traveltime="8.65" overlapTraveltime="8.97" density="11.75" laneDensity="11.75" occupancy="4.22" waitingTime="4.00" timeLoss="182.06" speed="13.52" speedRelative="0.49" departed="12" arrived="2" entered="179" left="187" laneChangedFrom="0" laneChangedTo="0"/>
        <edge id="-1307054560#5" sampledSeconds="1993.27" traveltime="10.64" overlapTraveltime="10.98" density="13.40" laneDensity="13.40" occupancy="4.96" waitingTime="15.00" timeLoss="432.25" speed="11.65" speedRelative="0.42" departed="9" arrived="2" entered="181" left="185" laneChangedFrom="0" laneChangedTo="0" teleported="1"/>
        <edge id="-152227686#0" sampledSeconds="479.41" traveltime="5.48" overlapTraveltime="5.91" density="7.19" laneDensity="7.19" occupancy="2.93" waitingTime="0.00" timeLoss="74.17" speed="10.18" speedRelative="0.73" departed="11" arrived="7" entered="76" left="78" laneChangedFrom="0" laneChangedTo="0"/>
        <edge id="-152227686#1" sampledSeconds="201.05" traveltime="2.35" overlapTraveltime="2.76" density="8.44" laneDensity="8.44" occupancy="2.68" waitingTime="0.00" timeLoss="48.68" speed="8.71" speedRelative="0.63" departed="13" arrived="8" entered="65" left="70" laneChangedFrom="0" laneChangedTo="0"/>
        <edge id="-152227686#2" sampledSeconds="30.63" traveltime="0.71" overlapTraveltime="1.86" density="6.36" laneDensity="6.36" occupancy="1.51" waitingTime="6.00" timeLoss="17.05" speed="4.77" speedRelative="0.34" departed="12" arrived="3" entered="8" left="17" laneChangedFrom="0" laneChangedTo="0"/>
        <edge id="-152227686#6" sampledSeconds="242.00" traveltime="21.86" overlapTraveltime="22.28" density="0.70" laneDensity="0.70" occupancy="0.30" waitingTime="0.00" timeLoss="15.14" speed="13.17" speedRelative="0.95" departed="7" arrived="6" entered="9" left="9" laneChangedFrom="0" laneChangedTo="0"/>
        <edge id="-152227697#2" sampledSeconds="13.51" traveltime="13.48" overlapTraveltime="13.74" density="0.05" laneDensity="0.05" occupancy="0.02" waitingTime="0.00" timeLoss="2.43" speed="16.38" speedRelative="0.74" departed="0" arrived="1" entered="1" left="0" laneChangedFrom="0" laneChangedTo="0"/>
        <edge id="-152227697#3" sampledSeconds="433.78" traveltime="4.25" overlapTraveltime="10.08" density="104.78" laneDensity="104.78" occupancy="19.91" waitingTime="291.00" timeLoss="365.37" speed="1.18" speedRelative="0.05" departed="8" arrived="2" entered="71" left="77" laneChangedFrom="0" laneChangedTo="0"/>
        <edge id="-155315678#4" sampledSeconds="8342.37" traveltime="67.01" overlapTraveltime="68.22" density="10.74" laneDensity="10.74" occupancy="4.79" waitingTime="1779.00" timeLoss="3850.33" speed="9.56" speedRelative="0.43" departed="11" arrived="0" entered="122" left="110" laneChangedFrom="0" laneChangedTo="0" teleported="30"/>
        <edge id="-155315678#5" sampledSeconds="3765.18" traveltime="36.24" overlapTraveltime="37.80" density="11.64" laneDensity="11.64" occupancy="4.26" waitingTime="1201.00" timeLoss="2074.28" speed="7.23" speedRelative="0.33" departed="12" arrived="3" entered="96" left="103" laneChangedFrom="0" laneChangedTo="0" teleported="18"/>
        <edge id="-155315680#1" sampledSeconds="503.85" traveltime="13.37" overlapTraveltime="15.53" density="4.22" laneDensity="4.22" occupancy="1.58" waitingTime="73.00" timeLoss="158.86" speed="6.68" speedRelative="0.48" departed="12" arrived="2" entered="27" left="37" laneChangedFrom="0" laneChangedTo="0"/>
        <edge id="-155315682" sampledSeconds="487.53" traveltime="11.29" overlapTraveltime="11.99" density="3.97" laneDensity="3.97" occupancy="1.16" waitingTime="4.00" timeLoss="136.34" speed="8.81" speedRelative="0.63" departed="9" arrived="7" entered="37" left="39" laneChangedFrom="0" laneChangedTo="0"/>
        <edge id="-155315683" sampledSeconds="632.57" traveltime="23.29" overlapTraveltime="24.13" density="2.61" laneDensity="2.61" occupancy="0.95" waitingTime="117.00" timeLoss="214.02" speed="8.53" speedRelative="0.61" departed="8" arrived="6" entered="22" left="23" laneChangedFrom="0" laneChangedTo="0" teleported="1"/>
        <edge id="-155315688#0" sampledSeconds="264.39" traveltime="9.85" overlapTraveltime="11.01" density="3.31" laneDensity="3.31" occupancy="1.34" waitingTime="56.00" timeLoss="113.99" speed="6.44" speedRelative="0.46" departed="14" arrived="11" entered="16" left="19" laneChangedFrom="0" laneChangedTo="0"/>
        <edge id="-155315688#1" sampledSeconds="358.97" traveltime="8.41" overlapTraveltime="8.94" density="3.24" laneDensity="3.24" occupancy="0.98" waitingTime="0.00" timeLoss="79.43" speed="10.68" speedRelative="0.77" departed="7" arrived="2" entered="37" left="39" laneChangedFrom="0" laneChangedTo="0"/>
        <edge id="-155315693#2" sampledSeconds="1957.75" traveltime="46.83" overlapTraveltime="47.96" density="5.95" laneDensity="5.95" occupancy="3.14" waitingTime="625.00" timeLoss="935.08" speed="5.83" speedRelative="0.42" departed="8" arrived="6" entered="38" left="40" laneChangedFrom="0" laneChangedTo="0" teleported="5"/>
        <edge id="-155315693#8" sampledSeconds="348.67" traveltime="53.93" overlapTraveltime="54.34" density="0.71" laneDensity="0.71" occupancy="0.15" waitingTime="0.00" timeLoss="24.02" speed="7.59" speedRelative="0.55" departed="14" arrived="0" entered="0" left="14" laneChangedFrom="0" laneChangedTo="0"/>
        <edge id="-155315694#2" sampledSeconds="1354.89" traveltime="41.62" overlapTraveltime="42.97" density="5.07" laneDensity="5.07" occupancy="2.63" waitingTime="572.00" timeLoss="745.72" speed="5.31" speedRelative="0.38" departed="9" arrived="7" entered="28" left="29" laneChangedFrom="0" laneChangedTo="0" teleported="4"/>
        <edge id="-155315694#3" sampledSeconds="116.92" traveltime="4.90" overlapTraveltime="5.39" density="2.38" laneDensity="2.38" occupancy="0.71" waitingTime="0.00" timeLoss="34.89" speed="8.23" speedRelative="0.59" departed="13" arrived="4" entered="16" left="25" laneChangedFrom="0" laneChangedTo="0"/>
        <edge id="-155315695#0" sampledSeconds="4456.63" traveltime="53.88" overlapTraveltime="55.83" density="35.87" laneDensity="35.87" occupancy="18.52" waitingTime="3007.00" timeLoss="3741.66" speed="1.95" speedRelative="0.14" departed="18" arrived="2" entered="85" left="87" laneChangedFrom="0" laneChangedTo="0" teleported="35"/>
        <edge id="-155315695#1" sampledSeconds="329.83" traveltime="5.57" overlapTraveltime="6.10" density="6.69" laneDensity="6.69" occupancy="2.78" waitingTime="0.00" timeLoss="139.29" speed="7.57" speedRelative="0.55" departed="12" arrived="4" entered="48" left="56" laneChangedFrom="0" laneChangedTo="0"/>
        <edge id="-155315695#3" sampledSeconds="912.04" traveltime="22.38" overlapTraveltime="23.55" density="3.11" laneDensity="3.11" occupancy="1.41" waitingTime="0.00" timeLoss="162.20" speed="10.58" speedRelative="0.76" departed="11" arrived="5" entered="33" left="39" laneChangedFrom="0" laneChangedTo="0"/>
        <edge id="-155315695#4" sampledSeconds="228.75" traveltime="7.57" overlapTraveltime="8.26" density="3.73" laneDensity="3.73" occupancy="1.58" waitingTime="52.00" timeLoss="103.07" speed="6.76" speedRelative="0.49" departed="12" arrived="3" entered="22" left="31" laneChangedFrom="0" laneChangedTo="0" teleported="2"/>
        <edge id="-155315711" sampledSeconds="1145.53" traveltime="29.42" overlapTraveltime="31.20" density="11.88" laneDensity="11.88" occupancy="6.20" waitingTime="750.00" timeLoss="915.10" speed="2.75" speedRelative="0.20" departed="9" arrived="4" entered="36" left="38" laneChangedFrom="0" laneChangedTo="0" teleported="11"/>
        <edge id="-155315719#0" sampledSeconds="2883.60" traveltime="59.71" overlapTraveltime="60.64" density="5.12" laneDensity="5.12" occupancy="2.38" waitingTime="479.00" timeLoss="1266.91" speed="7.81" speedRelative="0.35" departed="17" arrived="4" entered="41" left="44" laneChangedFrom="0" laneChangedTo="0" teleported="5"/>
        <edge id="-155315719#1" sampledSeconds="1195.29" traveltime="16.42" overlapTraveltime="17.54" density="6.24" laneDensity="6.24" occupancy="2.54" waitingTime="35.00" timeLoss="297.41" speed="9.35" speedRelative="0.42" departed="9" arrived="5" entered="64" left="65" laneChangedFrom="0" laneChangedTo="0"/>
        <edge id="-155315719#15" sampledSeconds="369.99" traveltime="65.68" overlapTraveltime="71.24" density="0.35" laneDensity="0.35" occupancy="0.12" waitingTime="22.00" timeLoss="44.07" speed="12.40" speedRelative="0.56" departed="9" arrived="0" entered="0" left="9" laneChangedFrom="0" laneChangedTo="0"/>
        <edge id="-155315719#2" sampledSeconds="644.12" traveltime="10.50" overlapTraveltime="10.82" density="4.95" laneDensity="4.95" occupancy="1.56" waitingTime="0.00" timeLoss="113.15" speed="10.34" speedRelative="0.47" departed="12" arrived="3" entered="54" left="60" laneChangedFrom="0" laneChangedTo="0"/>
        <edge id="-155315719#8" sampledSeconds="1514.22" traveltime="36.55" overlapTraveltime="37.95" density="3.43" laneDensity="3.43" occupancy="1.30" waitingTime="49.00" timeLoss="344.54" speed="9.81" speedRelative="0.44" departed="11" arrived="5" entered="36" left="42" laneChangedFrom="0" laneChangedTo="0"/>
        <edge id="-155775198#0" sampledSeconds="6289.00" traveltime="53.12" overlapTraveltime="54.09" density="13.86" laneDensity="13.86" occupancy="5.80" waitingTime="1418.00" timeLoss="2818.66" speed="7.07" speedRelative="0.25" departed="7" arrived="3" entered="113" left="117" laneChangedFrom="0" laneChangedTo="0" teleported="16"/>
        <edge id="-155775198#3" sampledSeconds="11965.44" traveltime="83.96" overlapTraveltime="85.08" density="25.40" laneDensity="25.40" occupancy="12.03" waitingTime="4944.00" timeLoss="7771.17" speed="4.67" speedRelative="0.17" departed="9" arrived="3" entered="139" left="140" laneChangedFrom="0" laneChangedTo="0" teleported="22"/>
        <edge id="-155775198#4" sampledSeconds="2503.65" traveltime="18.45" overlapTraveltime="20.02" density="65.94" laneDensity="65.94" occupancy="25.57" waitingTime="1641.00" timeLoss="2152.46" speed="1.79" speedRelative="0.06" departed="11" arrived="2" entered="122" left="131" laneChangedFrom="0" laneChangedTo="0" teleported="7"/>
        <edge id="-155775198#5" sampledSeconds="860.16" traveltime="3.00" overlapTraveltime="4.70" density="66.87" laneDensity="66.87" occupancy="24.61" waitingTime="341.00" timeLoss="631.65" speed="3.36" speedRelative="0.12" departed="5" arrived="4" entered="198" left="199" laneChangedFrom="0" laneChangedTo="0" teleported="2"/>
        <edge id="-155775198#6" sampledSeconds="3509.20" traveltime="19.59" overlapTraveltime="20.69" density="14.76" laneDensity="14.76" occupancy="5.83" waitingTime="304.00" timeLoss="1074.40" speed="9.78" speedRelative="0.35" departed="13" arrived="1" entered="163" left="174" laneChangedFrom="0" laneChangedTo="0" teleported="4"/>
        <edge id="-155775200#1" sampledSeconds="90284.92" traveltime="209.91" overlapTraveltime="211.59" density="101.57" laneDensity="101.57" occupancy="53.00" waitingTime="32578.00" timeLoss="69376.27" speed="3.53" speedRelative="0.13" departed="7" arrived="1" entered="536" left="400" laneChangedFrom="0" laneChangedTo="0" teleported="190"/>
        <edge id="-163652291" sampledSeconds="2370.25" traveltime="42.55" overlapTraveltime="45.78" density="54.91" laneDensity="54.91" occupancy="29.32" waitingTime="1818.00" timeLoss="2213.01" speed="0.90" speedRelative="0.03" departed="15" arrived="10" entered="48" left="52" laneChangedFrom="0" laneChangedTo="0" teleported="18"/>
        <edge id="-205021436#0" sampledSeconds="34843.57" traveltime="125.80" overlapTraveltime="126.99" density="51.86" laneDensity="51.86" occupancy="24.60" waitingTime="14046.00" timeLoss="24484.25" speed="4.45" speedRelative="0.16" departed="12" arrived="2" entered="324" left="264" laneChangedFrom="0" laneChangedTo="0" teleported="85"/>
        <edge id="-205021436#1" sampledSeconds="4551.47" traveltime="14.36" overlapTraveltime="15.75" density="36.88" laneDensity="36.88" occupancy="16.30" waitingTime="967.00" timeLoss="2450.30" speed="6.84" speedRelative="0.25" departed="7" arrived="3" entered="292" left="296" laneChangedFrom="0" laneChangedTo="0" teleported="11"/>
        <edge id="-271412010" sampledSeconds="963.53" traveltime="29.72" overlapTraveltime="30.69" density="2.48" laneDensity="2.48" occupancy="0.98" waitingTime="102.00" timeLoss="249.87" speed="10.67" speedRelative="0.77" departed="10" arrived="5" entered="26" left="28" laneChangedFrom="0" laneChangedTo="0"/>
        <edge id="-31905181#0" sampledSeconds="3101.58" traveltime="29.68" overlapTraveltime="30.93" density="16.99" laneDensity="16.99" occupancy="7.39" waitingTime="568.00" timeLoss="1696.69" speed="5.07" speedRelative="0.36" departed="14" arrived="3" entered="94" left="104" laneChangedFrom="0" laneChangedTo="0" teleported="6"/>
        <edge id="-31905181#3" sampledSeconds="2910.26" traveltime="42.89" overlapTraveltime="43.46" density="7.22" laneDensity="7.22" occupancy="3.00" waitingTime="0.00" timeLoss="911.54" speed="7.83" speedRelative="0.56" departed="15" arrived="3" entered="60" left="71" laneChangedFrom="0" laneChangedTo="0"/>
        <edge id="-31905190#0" sampledSeconds="197.67" traveltime="8.84" overlapTraveltime="9.51" density="1.78" laneDensity="1.78" occupancy="0.53" waitingTime="2.00" timeLoss="37.73" speed="10.09" speedRelative="0.73" departed="9" arrived="4" entered="18" left="23" laneChangedFrom="0" laneChangedTo="0"/>
        <edge id="-31905190#3" sampledSeconds="593.70" traveltime="16.84" overlapTraveltime="17.72" density="2.78" laneDensity="2.78" occupancy="0.77" waitingTime="15.00" timeLoss="60.61" speed="10.21" speedRelative="0.74" departed="12" arrived="7" entered="27" left="32" laneChangedFrom="0" laneChangedTo="0"/>
        <edge id="-31905195#1" sampledSeconds="247.26" traveltime="7.66" overlapTraveltime="8.53" density="2.64" laneDensity="2.64" occupancy="1.02" waitingTime="0.00" timeLoss="58.78" speed="9.66" speedRelative="0.70" departed="8" arrived="9" entered="24" left="23" laneChangedFrom="0" laneChangedTo="0"/>
        <edge id="-31905195#2" sampledSeconds="457.50" traveltime="12.85" overlapTraveltime="13.64" density="3.33" laneDensity="3.33" occupancy="1.17" waitingTime="49.00" timeLoss="147.32" speed="8.66" speedRelative="0.62" departed="7" arrived="5" entered="31" left="33" laneChangedFrom="0" laneChangedTo="0"/>
        <edge id="-31905201#2" sampledSeconds="2011.87" traveltime="28.78" overlapTraveltime="29.85" density="4.42" laneDensity="4.42" occupancy="1.50" waitingTime="251.00" timeLoss="443.69" speed="12.82" speedRelative="0.46" departed="5" arrived="5" entered="67" left="65" laneChangedFrom="0" laneChangedTo="0" teleported="2"/>
        <edge id="-31905214" sampledSeconds="4108.27" traveltime="33.99" overlapTraveltime="35.33" density="28.79" laneDensity="28.79" occupancy="13.61" waitingTime="2393.00" timeLoss="3179.42" speed="3.50" speedRelative="0.13" departed="13" arrived="8" entered="111" left="109" laneChangedFrom="0" laneChangedTo="0" teleported="30"/>
        <edge id="-322191552" sampledSeconds="19988.40" traveltime="77.60" overlapTraveltime="78.45" density="47.07" laneDensity="47.07" occupancy="19.03" waitingTime="2702.00" timeLoss="13713.84" speed="4.56" speedRelative="0.16" departed="12" arrived="3" entered="302" left="261" laneChangedFrom="0" laneChangedTo="0" teleported="56"/>
        <edge id="-406038877" sampledSeconds="463.38" traveltime="76.38" overlapTraveltime="77.17" density="0.99" laneDensity="0.99" occupancy="0.39" waitingTime="0.00" timeLoss="65.45" speed="5.12" speedRelative="0.92" departed="0" arrived="6" entered="7" left="0" laneChangedFrom="0" laneChangedTo="0"/>
        <edge id="-442885101#0" sampledSeconds="11314.91" traveltime="41.21" overlapTraveltime="42.34" density="72.41" laneDensity="36.21" occupancy="16.08" waitingTime="5862.00" timeLoss="8935.27" speed="3.18" speedRelative="0.11" departed="20" arrived="5" entered="275" left="275" laneChangedFrom="147" laneChangedTo="147" teleported="104"/>
        <edge id="-442885101#1" sampledSeconds="1124.17" traveltime="3.30" overlapTraveltime="3.82" density="25.87" laneDensity="12.94" occupancy="4.19" waitingTime="45.00" timeLoss="337.31" speed="10.48" speedRelative="0.38" departed="15" arrived="10" entered="287" left="288" laneChangedFrom="21" laneChangedTo="21" teleported="3"/>
        <edge id="-442885101#2" sampledSeconds="1555.80" traveltime="5.12" overlapTraveltime="5.49" density="26.35" laneDensity="13.17" occupancy="4.48" waitingTime="2.00" timeLoss="566.15" speed="9.67" speedRelative="0.35" departed="17" arrived="7" entered="277" left="273" laneChangedFrom="45" laneChangedTo="45"/>
        <edge id="-442885355#1" sampledSeconds="1908.70" traveltime="9.29" overlapTraveltime="10.77" density="25.13" laneDensity="25.13" occupancy="9.52" waitingTime="447.00" timeLoss="1144.81" speed="6.26" speedRelative="0.23" departed="7" arrived="1" entered="179" left="182" laneChangedFrom="0" laneChangedTo="0" teleported="7"/>