<?xml version="1.0" encoding="UTF-8"?>

<!-- generated on 2025-08-20 14:15:57 by Eclipse SUMO GUI Version 1.23.1
<sumoConfiguration xmlns:xsi="http://www.w3.org/2001/XMLSchema-instance" xsi:noNamespaceSchemaLocation="http://sumo.dlr.de/xsd/sumoConfiguration.xsd">

    <input>
        <net-file value="PhuQuoc/phuquoc.net.xml"/>
        <route-files value="PhuQuoc/phuquoc.rou.xml,PhuQuoc/phuquoc-demo.rou.xml"/>
        <additional-files value="PhuQuoc/detector.add.xml"/>
    </input>

    <output>
        <tripinfo-output value="D:\He_thong_giao_thong_thich_ung\Algorithms_code\PC_Algorithms\output\tripinfo.xml"/>
        <vehroute-output value="D:\He_thong_giao_thong_thich_ung\Algorithms_code\PC_Algorithms\output\vehroutes.xml"/>
        <edgedata-output value="PhuQuoc/../../output/edgedata_baseline.xml"/>
    </output>

    <time>
        <step-length value="1"/>
    </time>

    <processing>
        <lateral-resolution value="0.5"/>
        <ignore-route-errors value="true"/>
        <time-to-teleport value="50"/>
        <tls.actuated.jam-threshold value="30"/>
    </processing>

    <routing>
        <device.rerouting.adaptation-steps value="18"/>
        <device.rerouting.adaptation-interval value="10"/>
    </routing>

    <report>
        <verbose value="true"/>
        <duration-log.statistics value="true"/>
        <no-step-log value="true"/>
    </report>

    <traci_server>
        <remote-port value="8814"/>
    </traci_server>

    <gui_only>
        <gui-settings-file value="PhuQuoc/phuquoc.view.xml"/>
        <start value="true"/>
    </gui_only>

</sumoConfiguration>
-->

<meandata xmlns:xsi="http://www.w3.org/2001/XMLSchema-instance" xsi:noNamespaceSchemaLocation="http://sumo.dlr.de/xsd/meandata_file.xsd">
    <interval begin="0.00" end="1200.00" id="DEFAULT_EDGEDATA">
        <edge id="-100954129#0" sampledSeconds="2228.58" traveltime="21.63" overlapTraveltime="23.47" density="31.67" laneDensity="31.67" occupancy="10.14" waitingTime="1338.00" timeLoss="1693.32" speed="2.64" speedRelative="0.19" departed="11" arrived="5" entered="94" left="91" laneChangedFrom="0" laneChangedTo="0" teleported="18"/>
        <edge id="-100954129#1" sampledSeconds="538.76" traveltime="6.20" overlapTraveltime="6.74" density="8.46" laneDensity="8.46" occupancy="2.84" waitingTime="1.00" timeLoss="123.71" speed="8.44" speedRelative="0.61" departed="8" arrived="2" entered="77" left="83" laneChangedFrom="0" laneChangedTo="0"/>
        <edge id="-100954129#3" sampledSeconds="2137.81" traveltime="20.09" overlapTraveltime="21.12" density="26.15" laneDensity="26.15" occupancy="11.86" waitingTime="941.00" timeLoss="1525.47" speed="3.45" speedRelative="0.25" departed="4" arrived="6" entered="107" left="96" laneChangedFrom="0" laneChangedTo="0" teleported="9"/>
        <edge id="-100954129#4" sampledSeconds="515.55" traveltime="4.94" overlapTraveltime="5.32" density="8.05" laneDensity="8.05" occupancy="2.92" waitingTime="0.00" timeLoss="56.86" speed="10.80" speedRelative="0.78" departed="6" arrived="7" entered="97" left="92" laneChangedFrom="0" laneChangedTo="0"/>
        <edge id="-100954129#5" sampledSeconds="1392.06" traveltime="15.66" overlapTraveltime="16.09" density="7.28" laneDensity="7.28" occupancy="3.02" waitingTime="1.00" timeLoss="251.36" speed="10.17" speedRelative="0.73" departed="11" arrived="8" entered="86" left="86" laneChangedFrom="0" laneChangedTo="0"/>
        <edge id="-100954163#9" sampledSeconds="157.05" traveltime="16.93" overlapTraveltime="18.16" density="0.68" laneDensity="0.68" occupancy="0.18" waitingTime="0.00" timeLoss="24.52" speed="10.81" speedRelative="0.78" departed="13" arrived="0" entered="2" left="15" laneChangedFrom="0" laneChangedTo="0"/>
        <edge id="-100954245#13" sampledSeconds="2366.00" traveltime="144.76" overlapTraveltime="146.07" density="1.36" laneDensity="1.36" occupancy="0.70" waitingTime="324.00" timeLoss="831.77" speed="10.00" speedRelative="0.45" departed="7" arrived="0" entered="13" left="15" laneChangedFrom="0" laneChangedTo="0"/>
        <edge id="-1056899464#0" sampledSeconds="813.05" traveltime="8.21" overlapTraveltime="9.37" density="8.55" laneDensity="8.55" occupancy="3.32" waitingTime="0.00" timeLoss="226.86" speed="8.92" speedRelative="0.64" departed="9" arrived="2" entered="83" left="89" laneChangedFrom="0" laneChangedTo="0"/>
        <edge id="-1056899464#1" sampledSeconds="789.77" traveltime="8.12" overlapTraveltime="8.57" density="7.33" laneDensity="7.33" occupancy="3.02" waitingTime="0.00" timeLoss="91.11" speed="11.01" speedRelative="0.79" departed="10" arrived="2" entered="88" left="94" laneChangedFrom="0" laneChangedTo="0"/>
        <edge id="-1117528626#0" sampledSeconds="177.84" traveltime="33.85" overlapTraveltime="60.18" density="0.57" laneDensity="0.57" occupancy="0.18" waitingTime="90.00" timeLoss="125.54" speed="4.41" speedRelative="0.20" departed="7" arrived="0" entered="0" left="7" laneChangedFrom="0" laneChangedTo="0"/>
        <edge id="-1117528626#1" sampledSeconds="744.01" traveltime="57.58" overlapTraveltime="58.74" density="1.39" laneDensity="1.39" occupancy="0.71" waitingTime="289.00" timeLoss="379.27" speed="7.66" speedRelative="0.34" departed="9" arrived="3" entered="8" left="13" laneChangedFrom="0" laneChangedTo="0" teleported="8"/>
        <edge id="-1117528627#1" sampledSeconds="53.25" traveltime="24.74" overlapTraveltime="25.03" density="0.23" laneDensity="0.23" occupancy="0.05" waitingTime="0.00" timeLoss="4.69" speed="7.82" speedRelative="0.28" departed="0" arrived="2" entered="3" left="0" laneChangedFrom="0" laneChangedTo="0"/>
        <edge id="-1117528627#2" sampledSeconds="838.93" traveltime="48.21" overlapTraveltime="50.70" density="1.57" laneDensity="1.57" occupancy="0.66" waitingTime="231.00" timeLoss="339.45" speed="8.85" speedRelative="0.32" departed="8" arrived="4" entered="13" left="17" laneChangedFrom="0" laneChangedTo="0"/>
        <edge id="-1135316108" sampledSeconds="3136.12" traveltime="65.62" overlapTraveltime="65.86" density="2.51" laneDensity="2.51" occupancy="1.03" waitingTime="0.00" timeLoss="231.04" speed="15.90" speedRelative="0.72" departed="8" arrived="6" entered="45" left="44" laneChangedFrom="0" laneChangedTo="0"/>
        <edge id="-1135316109" sampledSeconds="1246.64" traveltime="21.86" overlapTraveltime="23.03" density="4.89" laneDensity="4.89" occupancy="1.84" waitingTime="221.00" timeLoss="448.77" speed="9.40" speedRelative="0.42" departed="9" arrived="4" entered="52" left="56" laneChangedFrom="0" laneChangedTo="0" teleported="1"/>
        <edge id="-1149576119" sampledSeconds="543.19" traveltime="33.28" overlapTraveltime="50.98" density="558.84" laneDensity="558.84" occupancy="40.70" waitingTime="511.00" timeLoss="533.41" speed="0.11" speedRelative="0.01" departed="9" arrived="4" entered="17" left="22" laneChangedFrom="0" laneChangedTo="0" teleported="10"/>
        <edge id="-1149578009" sampledSeconds="262.28" traveltime="23.96" overlapTraveltime="42.95" density="220.78" laneDensity="220.78" occupancy="19.85" waitingTime="244.00" timeLoss="257.24" speed="0.14" speedRelative="0.01" departed="7" arrived="7" entered="11" left="11" laneChangedFrom="0" laneChangedTo="0" teleported="6"/>
        <edge id="-1149578943" sampledSeconds="417.13" traveltime="17.97" overlapTraveltime="20.19" density="155.18" laneDensity="155.18" occupancy="30.55" waitingTime="362.00" timeLoss="402.79" speed="0.26" speedRelative="0.01" departed="7" arrived="3" entered="20" left="24" laneChangedFrom="0" laneChangedTo="0" teleported="4"/>
        <edge id="-1149578944" sampledSeconds="375.13" traveltime="21.36" overlapTraveltime="23.24" density="947.30" laneDensity="947.30" occupancy="24.23" waitingTime="352.00" timeLoss="365.87" speed="0.14" speedRelative="0.01" departed="8" arrived="3" entered="17" left="21" laneChangedFrom="0" laneChangedTo="0" teleported="5"/>
        <edge id="-1149578945" sampledSeconds="419.23" traveltime="40.47" overlapTraveltime="40.96" density="472.10" laneDensity="472.10" occupancy="32.29" waitingTime="401.00" timeLoss="411.62" speed="0.11" speedRelative="0.00" departed="1" arrived="3" entered="31" left="29" laneChangedFrom="0" laneChangedTo="0" teleported="8"/>
        <edge id="-1149579534" sampledSeconds="348.33" traveltime="38.75" overlapTraveltime="26.13" density="1319.45" laneDensity="1319.45" occupancy="18.06" waitingTime="335.39" timeLoss="342.58" speed="0.11" speedRelative="0.01" departed="4" arrived="2" entered="16" left="18" laneChangedFrom="0" laneChangedTo="0" teleported="6"/>
        <edge id="-1149579535" sampledSeconds="465.18" traveltime="29.43" overlapTraveltime="42.79" density="408.05" laneDensity="408.05" occupancy="34.07" waitingTime="429.00" timeLoss="457.36" speed="0.12" speedRelative="0.01" departed="7" arrived="3" entered="24" left="27" laneChangedFrom="0" laneChangedTo="0" teleported="7"/>
        <edge id="-1149580108" sampledSeconds="721.04" traveltime="46.81" overlapTraveltime="90.68" density="432.28" laneDensity="432.28" occupancy="56.80" waitingTime="691.00" timeLoss="714.54" speed="0.07" speedRelative="0.00" departed="9" arrived="3" entered="35" left="41" laneChangedFrom="0" laneChangedTo="0" teleported="13"/>
        <edge id="-1149580109" sampledSeconds="594.06" traveltime="46.15" overlapTraveltime="72.42" density="2475.23" laneDensity="2475.23" occupancy="28.43" waitingTime="580.65" timeLoss="589.51" speed="0.06" speedRelative="0.00" departed="8" arrived="4" entered="22" left="25" laneChangedFrom="0" laneChangedTo="0" teleported="10"/>
        <edge id="-1149580110" sampledSeconds="278.88" traveltime="23.91" overlapTraveltime="30.06" density="1161.99" laneDensity="1161.99" occupancy="12.37" waitingTime="261.69" timeLoss="271.01" speed="0.14" speedRelative="0.01" departed="5" arrived="3" entered="19" left="21" laneChangedFrom="0" laneChangedTo="0" teleported="6"/>
        <edge id="-1149580308" sampledSeconds="306.01" traveltime="19.37" overlapTraveltime="36.23" density="240.57" laneDensity="240.57" occupancy="23.20" waitingTime="271.00" timeLoss="297.34" speed="0.21" speedRelative="0.01" departed="0" arrived="4" entered="18" left="14" laneChangedFrom="0" laneChangedTo="0" teleported="1"/>
        <edge id="-1149581388" sampledSeconds="1415.28" traveltime="12.09" overlapTraveltime="12.48" density="8.54" laneDensity="8.54" occupancy="3.07" waitingTime="0.00" timeLoss="377.82" speed="11.38" speedRelative="0.51" departed="7" arrived="0" entered="124" left="124" laneChangedFrom="0" laneChangedTo="0"/>
        <edge id="-1149582046#3" sampledSeconds="1413.54" traveltime="191.87" overlapTraveltime="192.02" density="0.58" laneDensity="0.29" occupancy="0.06" waitingTime="0.00" timeLoss="78.09" speed="10.53" speedRelative="0.38" departed="0" arrived="5" entered="10" left="0" laneChangedFrom="1" laneChangedTo="2"/>
        <edge id="-1270367191#1" sampledSeconds="3058.76" traveltime="26.05" overlapTraveltime="26.87" density="10.09" laneDensity="10.09" occupancy="3.85" waitingTime="97.00" timeLoss="1147.04" speed="9.55" speedRelative="0.34" departed="5" arrived="2" entered="114" left="114" laneChangedFrom="0" laneChangedTo="0" teleported="2"/>
        <edge id="-1270367191#2" sampledSeconds="1038.80" traveltime="4.96" overlapTraveltime="13.62" density="210.62" laneDensity="210.62" occupancy="51.51" waitingTime="833.00" timeLoss="974.87" speed="0.67" speedRelative="0.02" departed="13" arrived="2" entered="140" left="150" laneChangedFrom="0" laneChangedTo="0" teleported="6"/>
        <edge id="-1307054560#0" sampledSeconds="5747.86" traveltime="42.12" overlapTraveltime="46.24" density="170.40" laneDensity="170.40" occupancy="85.11" waitingTime="4210.58" timeLoss="5421.79" speed="0.73" speedRelative="0.03" departed="10" arrived="0" entered="191" left="198" laneChangedFrom="0" laneChangedTo="0" teleported="48"/>
        <edge id="-1307054560#1" sampledSeconds="7049.97" traveltime="41.41" overlapTraveltime="47.39" density="114.95" laneDensity="114.95" occupancy="58.70" waitingTime="4111.93" timeLoss="6466.10" speed="1.20" speedRelative="0.04" departed="12" arrived="1" entered="185" left="195" laneChangedFrom="0" laneChangedTo="0" teleported="39"/>
        <edge id="-1307054560#2" sampledSeconds="8112.35" traveltime="43.09" overlapTraveltime="47.26" density="64.24" laneDensity="64.24" occupancy="34.12" waitingTime="3717.00" timeLoss="6824.01" speed="2.35" speedRelative="0.08" departed="5" arrived="2" entered="182" left="185" laneChangedFrom="0" laneChangedTo="0" teleported="28"/>
        <edge id="-1307054560#3" sampledSeconds="1773.85" traveltime="9.07" overlapTraveltime="9.72" density="13.86" laneDensity="13.86" occupancy="5.15" waitingTime="69.00" timeLoss="404.31" speed="11.39" speedRelative="0.41" departed="8" arrived="1" entered="180" left="186" laneChangedFrom="0" laneChangedTo="0"/>
        <edge id="-1307054560#4" sampledSeconds="1689.60" traveltime="8.94" overlapTraveltime="9.23" density="11.98" laneDensity="11.98" occupancy="4.16" waitingTime="0.00" timeLoss="184.79" speed="13.13" speedRelative="0.47" departed="12" arrived="2" entered="178" left="188" laneChangedFrom="0" laneChangedTo="0"/>
        <edge id="-1307054560#5" sampledSeconds="2087.62" traveltime="10.80" overlapTraveltime="11.43" density="14.03" laneDensity="14.03" occupancy="5.12" waitingTime="55.00" timeLoss="481.04" speed="11.19" speedRelative="0.40" departed="9" arrived="2" entered="179" left="185" laneChangedFrom="0" laneChangedTo="0" teleported="1"/>
        <edge id="-152227686#0" sampledSeconds="490.04" traveltime="5.39" overlapTraveltime="5.83" density="7.35" laneDensity="7.35" occupancy="2.97" waitingTime="0.00" timeLoss="70.51" speed="10.32" speedRelative="0.74" departed="11" arrived="7" entered="79" left="79" laneChangedFrom="0" laneChangedTo="0"/>
        <edge id="-152227686#1" sampledSeconds="217.31" traveltime="2.29" overlapTraveltime="2.72" density="9.12" laneDensity="9.12" occupancy="2.97" waitingTime="0.00" timeLoss="52.45" speed="8.91" speedRelative="0.64" departed="13" arrived="8" entered="72" left="76" laneChangedFrom="0" laneChangedTo="0"/>
        <edge id="-152227686#2" sampledSeconds="25.48" traveltime="0.68" overlapTraveltime="1.63" density="5.30" laneDensity="5.30" occupancy="1.22" waitingTime="5.00" timeLoss="12.04" speed="5.37" speedRelative="0.39" departed="12" arrived="2" entered="7" left="17" laneChangedFrom="0" laneChangedTo="0"/>
        <edge id="-152227686#6" sampledSeconds="234.87" traveltime="22.56" overlapTraveltime="23.00" density="0.68" laneDensity="0.68" occupancy="0.31" waitingTime="0.00" timeLoss="13.79" speed="12.77" speedRelative="0.92" departed="7" arrived="6" entered="7" left="8" laneChangedFrom="0" laneChangedTo="0"/>
        <edge id="-152227697#2" sampledSeconds="13.51" traveltime="13.48" overlapTraveltime="13.74" density="0.05" laneDensity="0.05" occupancy="0.02" waitingTime="0.00" timeLoss="2.43" speed="16.38" speedRelative="0.74" departed="0" arrived="1" entered="1" left="0" laneChangedFrom="0" laneChangedTo="0"/>
        <edge id="-152227697#3" sampledSeconds="431.17" traveltime="3.55" overlapTraveltime="9.27" density="104.15" laneDensity="104.15" occupancy="22.80" waitingTime="279.00" timeLoss="353.98" speed="1.32" speedRelative="0.06" departed="9" arrived="2" entered="75" left="82" laneChangedFrom="0" laneChangedTo="0"/>
        <edge id="-155315678#4" sampledSeconds="7024.76" traveltime="62.45" overlapTraveltime="63.63" density="9.04" laneDensity="9.04" occupancy="4.06" waitingTime="1506.00" timeLoss="2999.56" speed="10.25" speedRelative="0.46" departed="11" arrived="1" entered="109" left="108" laneChangedFrom="0" laneChangedTo="0" teleported="31"/>
        <edge id="-155315678#5" sampledSeconds="4200.12" traveltime="44.16" overlapTraveltime="46.57" density="12.98" laneDensity="12.98" occupancy="4.93" waitingTime="1836.00" timeLoss="2677.84" speed="5.87" speedRelative="0.26" departed="12" arrived="3" entered="87" left="89" laneChangedFrom="0" laneChangedTo="0" teleported="17"/>
        <edge id="-155315680#1" sampledSeconds="612.96" traveltime="13.59" overlapTraveltime="17.04" density="5.13" laneDensity="5.13" occupancy="2.01" waitingTime="140.00" timeLoss="235.20" speed="6.11" speedRelative="0.44" departed="12" arrived="2" entered="29" left="39" laneChangedFrom="0" laneChangedTo="0"/>
        <edge id="-155315682" sampledSeconds="627.99" traveltime="11.23" overlapTraveltime="11.95" density="5.11" laneDensity="5.11" occupancy="1.59" waitingTime="10.00" timeLoss="185.72" speed="8.85" speedRelative="0.64" departed="9" arrived="7" entered="49" left="51" laneChangedFrom="0" laneChangedTo="0" teleported="1"/>
        <edge id="-155315683" sampledSeconds="652.31" traveltime="24.02" overlapTraveltime="25.15" density="2.69" laneDensity="2.69" occupancy="1.16" waitingTime="108.00" timeLoss="233.64" speed="8.21" speedRelative="0.59" departed="8" arrived="6" entered="23" left="23" laneChangedFrom="0" laneChangedTo="0" teleported="1"/>
        <edge id="-155315688#0" sampledSeconds="266.55" traveltime="9.04" overlapTraveltime="10.10" density="3.34" laneDensity="3.34" occupancy="1.36" waitingTime="42.00" timeLoss="98.77" speed="7.02" speedRelative="0.51" departed="14" arrived="10" entered="17" left="21" laneChangedFrom="0" laneChangedTo="0"/>
        <edge id="-155315688#1" sampledSeconds="261.30" traveltime="8.52" overlapTraveltime="9.14" density="2.36" laneDensity="2.36" occupancy="0.85" waitingTime="0.00" timeLoss="56.64" speed="10.52" speedRelative="0.76" departed="7" arrived="2" entered="25" left="28" laneChangedFrom="0" laneChangedTo="0"/>
        <edge id="-155315693#2" sampledSeconds="1924.98" traveltime="46.74" overlapTraveltime="47.86" density="5.85" laneDensity="5.85" occupancy="2.94" waitingTime="630.00" timeLoss="924.12" speed="5.84" speedRelative="0.42" departed="8" arrived="6" entered="37" left="39" laneChangedFrom="0" laneChangedTo="0" teleported="4"/>
        <edge id="-155315693#8" sampledSeconds="199.21" traveltime="42.53" overlapTraveltime="43.32" density="0.40" laneDensity="0.40" occupancy="0.11" waitingTime="0.00" timeLoss="15.53" speed="9.53" speedRelative="0.69" departed="14" arrived="0" entered="0" left="14" laneChangedFrom="0" laneChangedTo="0"/>
        <edge id="-155315694#2" sampledSeconds="1473.33" traveltime="44.88" overlapTraveltime="46.30" density="5.51" laneDensity="5.51" occupancy="2.82" waitingTime="640.00" timeLoss="836.86" speed="4.92" speedRelative="0.35" departed="9" arrived="7" entered="29" left="30" laneChangedFrom="0" laneChangedTo="0" teleported="6"/>
        <edge id="-155315694#3" sampledSeconds="120.16" traveltime="4.83" overlapTraveltime="5.22" density="2.44" laneDensity="2.44" occupancy="0.70" waitingTime="0.00" timeLoss="29.93" speed="8.48" speedRelative="0.61" departed="13" arrived="4" entered="17" left="26" laneChangedFrom="0" laneChangedTo="0"/>
        <edge id="-155315695#0" sampledSeconds="4040.66" traveltime="44.35" overlapTraveltime="46.10" density="32.52" laneDensity="32.52" occupancy="15.96" waitingTime="2408.00" timeLoss="3257.07" speed="2.35" speedRelative="0.17" departed="18" arrived="2" entered="86" left="95" laneChangedFrom="0" laneChangedTo="0" teleported="22"/>
        <edge id="-155315695#1" sampledSeconds="342.87" traveltime="5.56" overlapTraveltime="6.06" density="6.95" laneDensity="6.95" occupancy="2.83" waitingTime="0.00" timeLoss="140.45" speed="7.60" speedRelative="0.55" departed="12" arrived="4" entered="50" left="58" laneChangedFrom="0" laneChangedTo="0"/>
        <edge id="-155315695#3" sampledSeconds="931.41" traveltime="21.94" overlapTraveltime="23.09" density="3.18" laneDensity="3.18" occupancy="1.42" waitingTime="0.00" timeLoss="164.73" speed="10.79" speedRelative="0.78" departed="11" arrived="6" entered="36" left="41" laneChangedFrom="0" laneChangedTo="0"/>
        <edge id="-155315695#4" sampledSeconds="240.08" traveltime="7.83" overlapTraveltime="8.57" density="3.92" laneDensity="3.92" occupancy="1.59" waitingTime="53.00" timeLoss="108.04" speed="6.49" speedRelative="0.47" departed="12" arrived="2" entered="22" left="32" laneChangedFrom="0" laneChangedTo="0" teleported="2"/>
        <edge id="-155315711" sampledSeconds="1122.53" traveltime="27.06" overlapTraveltime="28.50" density="11.64" laneDensity="11.64" occupancy="5.46" waitingTime="679.00" timeLoss="876.89" speed="2.99" speedRelative="0.22" departed="9" arrived="5" entered="37" left="38" laneChangedFrom="0" laneChangedTo="0" teleported="5"/>
        <edge id="-155315719#0" sampledSeconds="2646.40" traveltime="53.33" overlapTraveltime="54.11" density="4.70" laneDensity="4.70" occupancy="1.99" waitingTime="337.00" timeLoss="913.75" speed="8.75" speedRelative="0.39" departed="17" arrived="3" entered="41" left="49" laneChangedFrom="0" laneChangedTo="0" teleported="5"/>
        <edge id="-155315719#1" sampledSeconds="1217.76" traveltime="16.27" overlapTraveltime="17.70" density="6.36" laneDensity="6.36" occupancy="2.75" waitingTime="62.00" timeLoss="309.44" speed="9.29" speedRelative="0.42" departed="9" arrived="6" entered="64" left="65" laneChangedFrom="0" laneChangedTo="0"/>
        <edge id="-155315719#15" sampledSeconds="289.67" traveltime="66.76" overlapTraveltime="67.48" density="0.27" laneDensity="0.27" occupancy="0.12" waitingTime="0.00" timeLoss="14.43" speed="13.10" speedRelative="0.59" departed="9" arrived="0" entered="0" left="9" laneChangedFrom="0" laneChangedTo="0"/>
        <edge id="-155315719#2" sampledSeconds="650.44" traveltime="10.65" overlapTraveltime="10.94" density="5.00" laneDensity="5.00" occupancy="1.71" waitingTime="0.00" timeLoss="113.45" speed="10.25" speedRelative="0.46" departed="12" arrived="2" entered="52" left="60" laneChangedFrom="0" laneChangedTo="0"/>
        <edge id="-155315719#8" sampledSeconds="1477.63" traveltime="37.33" overlapTraveltime="38.74" density="3.34" laneDensity="3.34" occupancy="1.33" waitingTime="51.00" timeLoss="348.54" speed="9.62" speedRelative="0.43" departed="11" arrived="4" entered="35" left="41" laneChangedFrom="0" laneChangedTo="0"/>
        <edge id="-155775198#0" sampledSeconds="6275.47" traveltime="52.08" overlapTraveltime="53.09" density="13.83" laneDensity="13.83" occupancy="5.68" waitingTime="1171.00" timeLoss="2740.00" speed="7.20" speedRelative="0.26" departed="7" arrived="3" entered="115" left="119" laneChangedFrom="0" laneChangedTo="0" teleported="13"/>
        <edge id="-155775198#3" sampledSeconds="11949.32" traveltime="81.91" overlapTraveltime="83.48" density="25.36" laneDensity="25.36" occupancy="11.86" waitingTime="4725.00" timeLoss="7685.77" speed="4.76" speedRelative="0.17" departed="9" arrived="3" entered="142" left="143" laneChangedFrom="0" laneChangedTo="0" teleported="22"/>
        <edge id="-155775198#4" sampledSeconds="2618.97" traveltime="18.88" overlapTraveltime="20.49" density="68.98" laneDensity="68.98" occupancy="27.30" waitingTime="1739.00" timeLoss="2264.96" speed="1.75" speedRelative="0.06" departed="11" arrived="2" entered="125" left="134" laneChangedFrom="0" laneChangedTo="0" teleported="10"/>
        <edge id="-155775198#5" sampledSeconds="982.48" traveltime="3.43" overlapTraveltime="5.73" density="76.37" laneDensity="76.37" occupancy="30.08" waitingTime="463.19" timeLoss="764.47" speed="2.81" speedRelative="0.10" departed="6" arrived="4" entered="193" left="195" laneChangedFrom="0" laneChangedTo="0" teleported="5"/>
        <edge id="-155775198#6" sampledSeconds="3803.62" traveltime="21.08" overlapTraveltime="22.59" density="16.00" laneDensity="16.00" occupancy="6.07" waitingTime="611.00" timeLoss="1397.77" speed="8.95" speedRelative="0.32" departed="13" arrived="1" entered="162" left="171" laneChangedFrom="0" laneChangedTo="0" teleported="11"/>
        <edge id="-155775200#1" sampledSeconds="89952.74" traveltime="208.26" overlapTraveltime="209.95" density="101.20" laneDensity="101.20" occupancy="52.94" waitingTime="29736.00" timeLoss="68825.60" speed="3.55" speedRelative="0.13" departed="7" arrived="1" entered="520" left="391" laneChangedFrom="0" laneChangedTo="0" teleported="183"/>
        <edge id="-163652291" sampledSeconds="2880.98" traveltime="50.44" overlapTraveltime="54.35" density="66.74" laneDensity="66.74" occupancy="35.36" waitingTime="2258.00" timeLoss="2718.71" speed="0.76" speedRelative="0.03" departed="15" arrived="9" entered="49" left="54" laneChangedFrom="0" laneChangedTo="0" teleported="18"/>
        <edge id="-205021436#0" sampledSeconds="29331.89" traveltime="102.85" overlapTraveltime="104.32" density="43.66" laneDensity="43.66" occupancy="21.20" waitingTime="8968.00" timeLoss="18574.87" speed="5.41" speedRelative="0.19" departed="12" arrived="3" entered="320" left="268" laneChangedFrom="0" laneChangedTo="0" teleported="76"/>
        <edge id="-205021436#1" sampledSeconds="5310.39" traveltime="16.43" overlapTraveltime="17.96" density="43.03" laneDensity="43.03" occupancy="19.33" waitingTime="1344.00" timeLoss="3179.53" speed="6.00" speedRelative="0.22" departed="7" arrived="3" entered="297" left="301" laneChangedFrom="0" laneChangedTo="0" teleported="11"/>
        <edge id="-271412010" sampledSeconds="881.03" traveltime="27.06" overlapTraveltime="27.89" density="2.27" laneDensity="2.27" occupancy="0.88" waitingTime="25.00" timeLoss="160.38" speed="11.73" speedRelative="0.84" departed="10" arrived="5" entered="26" left="29" laneChangedFrom="0" laneChangedTo="0"/>
        <edge id="-31905181#0" sampledSeconds="2711.69" traveltime="25.87" overlapTraveltime="27.19" density="14.85" laneDensity="14.85" occupancy="6.96" waitingTime="464.00" timeLoss="1316.86" speed="5.78" speedRelative="0.42" departed="14" arrived="4" entered="94" left="96" laneChangedFrom="0" laneChangedTo="0" teleported="6"/>
        <edge id="-31905181#3" sampledSeconds="2781.69" traveltime="40.53" overlapTraveltime="41.06" density="6.90" laneDensity="6.90" occupancy="3.10" waitingTime="0.00" timeLoss="773.91" speed="8.29" speedRelative="0.60" departed="15" arrived="3" entered="61" left="71" laneChangedFrom="0" laneChangedTo="0"/>
        <edge id="-31905190#0" sampledSeconds="221.76" traveltime="8.89" overlapTraveltime="9.52" density="1.99" laneDensity="1.99" occupancy="0.58" waitingTime="2.00" timeLoss="45.32" speed="10.07" speedRelative="0.72" departed="9" arrived="4" entered="21" left="26" laneChangedFrom="0" laneChangedTo="0"/>
        <edge id="-31905190#3" sampledSeconds="579.46" traveltime="16.75" overlapTraveltime="17.68" density="2.71" laneDensity="2.71" occupancy="0.76" waitingTime="15.00" timeLoss="59.79" speed="10.24" speedRelative="0.74" departed="12" arrived="7" entered="27" left="32" laneChangedFrom="0" laneChangedTo="0"/>
        <edge id="-31905195#1" sampledSeconds="262.48" traveltime="8.21" overlapTraveltime="8.96" density="2.80" laneDensity="2.80" occupancy="1.06" waitingTime="17.00" timeLoss="73.06" speed="9.18" speedRelative="0.66" departed="8" arrived="10" entered="25" left="22" laneChangedFrom="0" laneChangedTo="0"/>
        <edge id="-31905195#2" sampledSeconds="549.12" traveltime="13.48" overlapTraveltime="14.39" density="4.00" laneDensity="4.00" occupancy="1.46" waitingTime="68.00" timeLoss="194.23" speed="8.22" speedRelative="0.59" departed="7" arrived="6" entered="35" left="36" laneChangedFrom="0" laneChangedTo="0"/>
        <edge id="-31905201#2" sampledSeconds="2037.18" traveltime="29.13" overlapTraveltime="30.84" density="4.48" laneDensity="4.48" occupancy="1.67" waitingTime="252.00" timeLoss="491.01" speed="12.42" speedRelative="0.45" departed="5" arrived="3" entered="63" left="65" laneChangedFrom="0" laneChangedTo="0" teleported="1"/>
        <edge id="-31905214" sampledSeconds="4019.55" traveltime="31.38" overlapTraveltime="32.82" density="28.17" laneDensity="28.17" occupancy="13.29" waitingTime="2190.00" timeLoss="3047.53" speed="3.77" speedRelative="0.14" departed="13" arrived="8" entered="119" left="115" laneChangedFrom="0" laneChangedTo="0" teleported="29"/>
        <edge id="-322191552" sampledSeconds="19328.28" traveltime="68.48" overlapTraveltime="69.32" density="45.51" laneDensity="45.51" occupancy="18.19" waitingTime="1781.00" timeLoss="12459.95" speed="5.16" speedRelative="0.19" departed="12" arrived="3" entered="314" left="272" laneChangedFrom="0" laneChangedTo="0" teleported="49"/>
        <edge id="-406038877" sampledSeconds="642.60" traveltime="79.86" overlapTraveltime="80.86" density="1.37" laneDensity="1.37" occupancy="0.65" waitingTime="0.00" timeLoss="89.75" speed="4.90" speedRelative="0.88" departed="0" arrived="8" entered="8" left="0" laneChangedFrom="0" laneChangedTo="0"/>
        <edge id="-442885101#0" sampledSeconds="12028.12" traveltime="42.93" overlapTraveltime="44.10" density="76.98" laneDensity="38.49" occupancy="16.86" waitingTime="6394.00" timeLoss="9614.87" speed="3.05" speedRelative="0.11" departed="20" arrived="5" entered="282" left="284" laneChangedFrom="166" laneChangedTo="167" teleported="114"/>
        <edge id="-442885101#1" sampledSeconds="1090.75" traveltime="3.33" overlapTraveltime="3.85" density="25.10" laneDensity="12.55" occupancy="4.05" waitingTime="72.00" timeLoss="333.64" speed="10.39" speedRelative="0.37" departed="15" arrived="10" entered="276" left="280" laneChangedFrom="23" laneChangedTo="23" teleported="2"/>
        <edge id="-442885101#2" sampledSeconds="1593.09" traveltime="5.19" overlapTraveltime="5.64" density="26.98" laneDensity="13.49" occupancy="4.58" waitingTime="20.00" timeLoss="605.09" speed="9.41" speedRelative="0.34" departed="17" arrived="7" entered="276" left="275" laneChangedFrom="39" laneChangedTo="39"/>
        <edge id="-442885355#1" sampledSeconds="2491.36" traveltime="12.39" overlapTraveltime="14.47" density="32.80" laneDensity="32.80" occupancy="14.46" waitingTime="885.00" timeLoss="1746.59" speed="4.71" speedRelative="0.17" departed="7" arrived="1" entered="185" left="188" laneChangedFrom="0" laneChangedTo="0" teleported="24"/>