<?xml version="1.0" encoding="UTF-8"?>

<!-- generated on 2025-08-19 16:26:27 by Eclipse SUMO GUI Version 1.23.1
<sumoConfiguration xmlns:xsi="http://www.w3.org/2001/XMLSchema-instance" xsi:noNamespaceSchemaLocation="http://sumo.dlr.de/xsd/sumoConfiguration.xsd">

    <input>
        <net-file value="PhuQuoc/phuquoc.net.xml"/>
        <route-files value="PhuQuoc/phuquoc.rou.xml,PhuQuoc/phuquoc-demo.rou.xml"/>
        <additional-files value="PhuQuoc/detector.add.xml"/>
    </input>

    <output>
        <tripinfo-output value="D:\He_thong_giao_thong_thich_ung\Algorithms_code\PC_Algorithms\output\tripinfo.xml"/>
        <vehroute-output value="D:\He_thong_giao_thong_thich_ung\Algorithms_code\PC_Algorithms\output\vehroutes.xml"/>
        <edgedata-output value="D:\He_thong_giao_thong_thich_ung\Algorithms_code\PC_Algorithms\output\edgedata.xml"/>
    </output>

    <time>
        <step-length value="1"/>
    </time>

    <processing>
        <lateral-resolution value="0.5"/>
        <ignore-route-errors value="true"/>
        <time-to-teleport value="50"/>
        <tls.actuated.jam-threshold value="30"/>
    </processing>

    <routing>
        <device.rerouting.adaptation-steps value="18"/>
        <device.rerouting.adaptation-interval value="10"/>
    </routing>

    <report>
        <verbose value="true"/>
        <duration-log.statistics value="true"/>
        <no-step-log value="true"/>
    </report>

    <traci_server>
        <remote-port value="8814"/>
    </traci_server>

    <gui_only>
        <gui-settings-file value="PhuQuoc/phuquoc.view.xml"/>
        <start value="true"/>
    </gui_only>

</sumoConfiguration>
-->

<meandata xmlns:xsi="http://www.w3.org/2001/XMLSchema-instance" xsi:noNamespaceSchemaLocation="http://sumo.dlr.de/xsd/meandata_file.xsd">
    <interval begin="0.00" end="1860.00" id="DEFAULT_EDGEDATA">
        <edge id="-100954129#0" sampledSeconds="8163.10" traveltime="44.83" overlapTraveltime="47.38" density="74.84" laneDensity="74.84" occupancy="32.02" waitingTime="4601.00" timeLoss="7133.40" speed="1.33" speedRelative="0.10" departed="16" arrived="7" entered="183" left="186" laneChangedFrom="0" laneChangedTo="0" teleported="35"/>
        <edge id="-100954129#1" sampledSeconds="2869.26" traveltime="17.57" overlapTraveltime="18.58" density="29.08" laneDensity="29.08" occupancy="11.43" waitingTime="1217.00" timeLoss="2029.28" speed="3.08" speedRelative="0.22" departed="16" arrived="4" entered="152" left="164" laneChangedFrom="0" laneChangedTo="0" teleported="11"/>
        <edge id="-100954129#3" sampledSeconds="4659.09" traveltime="24.66" overlapTraveltime="25.66" density="36.77" laneDensity="36.77" occupancy="16.22" waitingTime="2232.00" timeLoss="3561.77" speed="2.83" speedRelative="0.20" departed="7" arrived="10" entered="193" left="185" laneChangedFrom="0" laneChangedTo="0" teleported="25"/>
        <edge id="-100954129#4" sampledSeconds="1154.61" traveltime="6.09" overlapTraveltime="6.61" density="11.62" laneDensity="11.62" occupancy="4.38" waitingTime="25.00" timeLoss="316.96" speed="8.71" speedRelative="0.63" departed="8" arrived="10" entered="171" left="169" laneChangedFrom="0" laneChangedTo="0"/>
        <edge id="-100954129#5" sampledSeconds="2592.35" traveltime="16.43" overlapTraveltime="16.90" density="8.75" laneDensity="8.75" occupancy="3.58" waitingTime="1.00" timeLoss="625.48" speed="9.68" speedRelative="0.70" departed="14" arrived="13" entered="154" left="154" laneChangedFrom="0" laneChangedTo="0"/>
        <edge id="-100954163#8" sampledSeconds="2.75" traveltime="2.61" overlapTraveltime="2.75" density="0.04" laneDensity="0.04" occupancy="0.01" waitingTime="0.00" timeLoss="0.22" speed="15.33" speedRelative="1.10" departed="0" arrived="1" entered="1" left="0" laneChangedFrom="0" laneChangedTo="0"/>
        <edge id="-100954163#9" sampledSeconds="349.24" traveltime="19.37" overlapTraveltime="20.69" density="0.97" laneDensity="0.97" occupancy="0.35" waitingTime="0.00" timeLoss="51.21" speed="9.54" speedRelative="0.69" departed="19" arrived="4" entered="9" left="24" laneChangedFrom="0" laneChangedTo="0"/>
        <edge id="-100954245#13" sampledSeconds="4396.55" traveltime="140.09" overlapTraveltime="142.74" density="1.62" laneDensity="1.62" occupancy="0.79" waitingTime="766.00" timeLoss="1531.43" speed="10.23" speedRelative="0.46" departed="12" arrived="4" entered="25" left="32" laneChangedFrom="0" laneChangedTo="0" teleported="1"/>
        <edge id="-1056899464#0" sampledSeconds="2821.37" traveltime="13.61" overlapTraveltime="15.63" density="19.14" laneDensity="19.14" occupancy="7.90" waitingTime="549.37" timeLoss="1625.83" speed="5.37" speedRelative="0.39" departed="13" arrived="4" entered="178" left="184" laneChangedFrom="0" laneChangedTo="0" teleported="7"/>
        <edge id="-1056899464#1" sampledSeconds="1906.59" traveltime="8.34" overlapTraveltime="8.88" density="11.42" laneDensity="11.42" occupancy="5.20" waitingTime="40.00" timeLoss="294.85" speed="10.67" speedRelative="0.77" departed="18" arrived="5" entered="209" left="220" laneChangedFrom="0" laneChangedTo="0"/>
        <edge id="-1117528626#0" sampledSeconds="199.33" traveltime="39.02" overlapTraveltime="44.82" density="0.41" laneDensity="0.41" occupancy="0.17" waitingTime="70.00" timeLoss="110.10" speed="5.93" speedRelative="0.27" departed="9" arrived="0" entered="0" left="9" laneChangedFrom="0" laneChangedTo="0"/>
        <edge id="-1117528626#1" sampledSeconds="1143.26" traveltime="50.10" overlapTraveltime="51.07" density="1.38" laneDensity="1.38" occupancy="0.60" waitingTime="423.00" timeLoss="572.73" speed="8.80" speedRelative="0.40" departed="13" arrived="8" entered="16" left="21" laneChangedFrom="0" laneChangedTo="0" teleported="7"/>
        <edge id="-1117528627#1" sampledSeconds="90.96" traveltime="18.07" overlapTraveltime="18.28" density="0.25" laneDensity="0.25" occupancy="0.09" waitingTime="0.00" timeLoss="8.98" speed="10.77" speedRelative="0.39" departed="0" arrived="5" entered="5" left="0" laneChangedFrom="0" laneChangedTo="0"/>
        <edge id="-1117528627#2" sampledSeconds="1289.38" traveltime="47.71" overlapTraveltime="49.73" density="1.56" laneDensity="1.56" occupancy="0.64" waitingTime="402.00" timeLoss="574.02" speed="9.02" speedRelative="0.32" departed="10" arrived="8" entered="21" left="22" laneChangedFrom="0" laneChangedTo="0" teleported="2"/>
        <edge id="-1135316108" sampledSeconds="7742.44" traveltime="65.98" overlapTraveltime="66.21" density="3.99" laneDensity="3.99" occupancy="1.54" waitingTime="0.00" timeLoss="579.70" speed="15.82" speedRelative="0.71" departed="15" arrived="9" entered="123" left="111" laneChangedFrom="0" laneChangedTo="0"/>
        <edge id="-1135316109" sampledSeconds="3206.08" traveltime="27.10" overlapTraveltime="28.20" density="8.11" laneDensity="8.11" occupancy="3.42" waitingTime="794.00" timeLoss="1564.22" speed="7.69" speedRelative="0.35" departed="14" arrived="7" entered="110" left="112" laneChangedFrom="0" laneChangedTo="0" teleported="7"/>
        <edge id="-1149576119" sampledSeconds="777.95" traveltime="38.17" overlapTraveltime="60.63" density="516.36" laneDensity="516.36" occupancy="37.86" waitingTime="734.00" timeLoss="765.60" speed="0.11" speedRelative="0.00" departed="12" arrived="7" entered="33" left="37" laneChangedFrom="0" laneChangedTo="0" teleported="14"/>
        <edge id="-1149578009" sampledSeconds="303.63" traveltime="20.15" overlapTraveltime="26.85" density="164.89" laneDensity="164.89" occupancy="14.48" waitingTime="278.00" timeLoss="296.05" speed="0.21" speedRelative="0.01" departed="9" arrived="12" entered="17" left="14" laneChangedFrom="0" laneChangedTo="0" teleported="6"/>
        <edge id="-1149578943" sampledSeconds="903.15" traveltime="24.92" overlapTraveltime="37.42" density="216.77" laneDensity="216.77" occupancy="44.65" waitingTime="811.00" timeLoss="879.86" speed="0.18" speedRelative="0.01" departed="14" arrived="3" entered="32" left="42" laneChangedFrom="0" laneChangedTo="0" teleported="10"/>
        <edge id="-1149578944" sampledSeconds="752.04" traveltime="29.58" overlapTraveltime="38.50" density="1225.21" laneDensity="1225.21" occupancy="31.10" waitingTime="714.00" timeLoss="740.52" speed="0.09" speedRelative="0.00" departed="14" arrived="4" entered="29" left="39" laneChangedFrom="0" laneChangedTo="0" teleported="13"/>
        <edge id="-1149578945" sampledSeconds="505.16" traveltime="28.28" overlapTraveltime="28.17" density="367.02" laneDensity="367.02" occupancy="24.89" waitingTime="472.00" timeLoss="494.53" speed="0.14" speedRelative="0.01" departed="2" arrived="3" entered="47" left="45" laneChangedFrom="0" laneChangedTo="0" teleported="11"/>
        <edge id="-1149579534" sampledSeconds="616.99" traveltime="43.56" overlapTraveltime="49.88" density="1507.79" laneDensity="1507.79" occupancy="21.16" waitingTime="597.39" timeLoss="609.50" speed="0.08" speedRelative="0.00" departed="10" arrived="4" entered="25" left="30" laneChangedFrom="0" laneChangedTo="0" teleported="10"/>
        <edge id="-1149579535" sampledSeconds="607.94" traveltime="23.44" overlapTraveltime="33.07" density="344.05" laneDensity="344.05" occupancy="28.76" waitingTime="532.00" timeLoss="590.98" speed="0.20" speedRelative="0.01" departed="13" arrived="4" entered="41" left="49" laneChangedFrom="0" laneChangedTo="0" teleported="12"/>
        <edge id="-1149580108" sampledSeconds="1071.07" traveltime="37.52" overlapTraveltime="54.46" density="414.28" laneDensity="414.28" occupancy="53.84" waitingTime="1011.00" timeLoss="1054.65" speed="0.12" speedRelative="0.01" departed="16" arrived="5" entered="46" left="56" laneChangedFrom="0" laneChangedTo="0" teleported="17"/>
        <edge id="-1149580109" sampledSeconds="652.78" traveltime="22.86" overlapTraveltime="29.35" density="1754.78" laneDensity="1754.78" occupancy="20.38" waitingTime="611.18" timeLoss="639.10" speed="0.15" speedRelative="0.01" departed="12" arrived="7" entered="33" left="37" laneChangedFrom="0" laneChangedTo="0" teleported="9"/>
        <edge id="-1149580110" sampledSeconds="571.44" traveltime="20.04" overlapTraveltime="29.68" density="1536.14" laneDensity="1536.14" occupancy="19.94" waitingTime="523.51" timeLoss="553.04" speed="0.18" speedRelative="0.01" departed="13" arrived="6" entered="30" left="37" laneChangedFrom="0" laneChangedTo="0" teleported="8"/>
        <edge id="-1149580308" sampledSeconds="737.45" traveltime="26.83" overlapTraveltime="55.52" density="374.03" laneDensity="374.03" occupancy="36.89" waitingTime="686.00" timeLoss="724.89" speed="0.13" speedRelative="0.01" departed="4" arrived="6" entered="26" left="24" laneChangedFrom="0" laneChangedTo="0" teleported="5"/>
        <edge id="-1149581388" sampledSeconds="2653.99" traveltime="11.92" overlapTraveltime="12.32" density="10.33" laneDensity="10.33" occupancy="3.91" waitingTime="0.00" timeLoss="656.82" speed="11.54" speedRelative="0.52" departed="9" arrived="1" entered="237" left="243" laneChangedFrom="0" laneChangedTo="0"/>
        <edge id="-1149582046#3" sampledSeconds="2747.06" traveltime="196.06" overlapTraveltime="196.26" density="0.73" laneDensity="0.37" occupancy="0.09" waitingTime="0.00" timeLoss="152.68" speed="10.31" speedRelative="0.37" departed="0" arrived="14" entered="14" left="0" laneChangedFrom="3" laneChangedTo="5"/>
        <edge id="-1270367191#1" sampledSeconds="4781.82" traveltime="27.04" overlapTraveltime="27.88" density="10.17" laneDensity="10.17" occupancy="4.16" waitingTime="107.00" timeLoss="1820.12" speed="9.22" speedRelative="0.33" departed="10" arrived="2" entered="173" left="181" laneChangedFrom="0" laneChangedTo="0" teleported="2"/>
        <edge id="-1270367191#2" sampledSeconds="1274.92" traveltime="2.69" overlapTraveltime="7.52" density="166.77" laneDensity="166.77" occupancy="39.76" waitingTime="833.00" timeLoss="1120.93" speed="1.22" speedRelative="0.04" departed="24" arrived="3" entered="244" left="265" laneChangedFrom="0" laneChangedTo="0" teleported="5"/>
        <edge id="-1307054560#0" sampledSeconds="9949.13" traveltime="51.65" overlapTraveltime="57.79" density="190.29" laneDensity="190.29" occupancy="93.28" waitingTime="7717.00" timeLoss="9488.92" speed="0.58" speedRelative="0.02" departed="12" arrived="3" entered="255" left="260" laneChangedFrom="0" laneChangedTo="0" teleported="56"/>
        <edge id="-1307054560#1" sampledSeconds="10500.51" traveltime="43.67" overlapTraveltime="50.37" density="110.46" laneDensity="110.46" occupancy="61.50" waitingTime="6576.36" timeLoss="9661.59" speed="1.14" speedRelative="0.04" departed="16" arrived="2" entered="246" left="260" laneChangedFrom="0" laneChangedTo="0" teleported="51"/>
        <edge id="-1307054560#2" sampledSeconds="11376.13" traveltime="42.72" overlapTraveltime="47.57" density="58.12" laneDensity="58.12" occupancy="33.58" waitingTime="6017.00" timeLoss="9553.47" speed="2.34" speedRelative="0.08" departed="10" arrived="4" entered="243" left="249" laneChangedFrom="0" laneChangedTo="0" teleported="22"/>
        <edge id="-1307054560#3" sampledSeconds="2562.05" traveltime="9.75" overlapTraveltime="10.51" density="12.92" laneDensity="12.92" occupancy="5.26" waitingTime="251.00" timeLoss="717.16" speed="10.57" speedRelative="0.38" departed="12" arrived="1" entered="239" left="250" laneChangedFrom="0" laneChangedTo="0"/>
        <edge id="-1307054560#4" sampledSeconds="2299.14" traveltime="9.03" overlapTraveltime="9.34" density="10.52" laneDensity="10.52" occupancy="3.80" waitingTime="1.00" timeLoss="270.51" speed="12.99" speedRelative="0.47" departed="15" arrived="5" entered="238" left="248" laneChangedFrom="0" laneChangedTo="0"/>
        <edge id="-1307054560#5" sampledSeconds="2803.04" traveltime="11.08" overlapTraveltime="11.71" density="12.16" laneDensity="12.16" occupancy="4.65" waitingTime="57.00" timeLoss="682.17" speed="10.94" speedRelative="0.39" departed="17" arrived="2" entered="234" left="249" laneChangedFrom="0" laneChangedTo="0" teleported="1"/>
        <edge id="-152227686#0" sampledSeconds="990.22" traveltime="5.01" overlapTraveltime="5.44" density="9.58" laneDensity="9.58" occupancy="3.99" waitingTime="0.00" timeLoss="122.42" speed="11.09" speedRelative="0.80" departed="17" arrived="10" entered="175" left="181" laneChangedFrom="0" laneChangedTo="0"/>
        <edge id="-152227686#1" sampledSeconds="470.25" traveltime="2.25" overlapTraveltime="2.75" density="12.73" laneDensity="12.73" occupancy="4.34" waitingTime="6.00" timeLoss="132.36" speed="8.90" speedRelative="0.64" departed="16" arrived="10" entered="164" left="169" laneChangedFrom="0" laneChangedTo="0"/>
        <edge id="-152227686#2" sampledSeconds="72.31" traveltime="0.80" overlapTraveltime="2.85" density="9.70" laneDensity="9.70" occupancy="2.56" waitingTime="25.00" timeLoss="48.25" speed="3.42" speedRelative="0.25" departed="15" arrived="5" entered="16" left="26" laneChangedFrom="0" laneChangedTo="0"/>
        <edge id="-152227686#6" sampledSeconds="451.19" traveltime="24.33" overlapTraveltime="24.70" density="0.84" laneDensity="0.84" occupancy="0.32" waitingTime="0.00" timeLoss="32.56" speed="11.86" speedRelative="0.85" departed="11" arrived="10" entered="13" left="14" laneChangedFrom="0" laneChangedTo="0"/>
        <edge id="-152227697#2" sampledSeconds="57.02" traveltime="14.10" overlapTraveltime="14.31" density="0.14" laneDensity="0.14" occupancy="0.05" waitingTime="0.00" timeLoss="11.38" speed="15.69" speedRelative="0.71" departed="0" arrived="4" entered="4" left="0" laneChangedFrom="0" laneChangedTo="0"/>
        <edge id="-152227697#3" sampledSeconds="536.18" traveltime="2.39" overlapTraveltime="5.97" density="83.56" laneDensity="83.56" occupancy="17.39" waitingTime="280.00" timeLoss="413.34" speed="1.76" speedRelative="0.08" departed="19" arrived="7" entered="123" left="135" laneChangedFrom="0" laneChangedTo="0"/>
        <edge id="-155315678#4" sampledSeconds="23613.23" traveltime="140.50" overlapTraveltime="142.05" density="19.61" laneDensity="19.61" occupancy="10.75" waitingTime="10199.00" timeLoss="17588.38" speed="4.60" speedRelative="0.21" departed="12" arrived="7" entered="171" left="157" laneChangedFrom="0" laneChangedTo="0" teleported="46"/>
        <edge id="-155315678#5" sampledSeconds="5589.79" traveltime="40.63" overlapTraveltime="42.47" density="11.14" laneDensity="11.14" occupancy="4.44" waitingTime="1791.00" timeLoss="3076.95" speed="6.45" speedRelative="0.29" departed="18" arrived="7" entered="130" left="139" laneChangedFrom="0" laneChangedTo="0" teleported="29"/>
        <edge id="-155315680#1" sampledSeconds="697.85" traveltime="11.83" overlapTraveltime="14.52" density="3.77" laneDensity="3.77" occupancy="1.51" waitingTime="113.00" timeLoss="230.92" speed="7.17" speedRelative="0.52" departed="18" arrived="3" entered="39" left="54" laneChangedFrom="0" laneChangedTo="0"/>
        <edge id="-155315682" sampledSeconds="875.36" traveltime="10.94" overlapTraveltime="11.60" density="4.60" laneDensity="4.60" occupancy="1.41" waitingTime="6.00" timeLoss="228.88" speed="9.11" speedRelative="0.66" departed="16" arrived="12" entered="69" left="71" laneChangedFrom="0" laneChangedTo="0"/>
        <edge id="-155315683" sampledSeconds="819.26" traveltime="24.64" overlapTraveltime="25.79" density="2.18" laneDensity="2.18" occupancy="1.05" waitingTime="185.00" timeLoss="315.82" speed="8.02" speedRelative="0.58" departed="13" arrived="7" entered="26" left="31" laneChangedFrom="0" laneChangedTo="0" teleported="1"/>
        <edge id="-155315688#0" sampledSeconds="470.71" traveltime="11.43" overlapTraveltime="12.39" density="3.81" laneDensity="3.81" occupancy="1.36" waitingTime="146.00" timeLoss="253.48" speed="5.67" speedRelative="0.41" departed="14" arrived="12" entered="31" left="33" laneChangedFrom="0" laneChangedTo="0" teleported="4"/>
        <edge id="-155315688#1" sampledSeconds="1132.46" traveltime="13.43" overlapTraveltime="14.64" density="6.60" laneDensity="6.60" occupancy="2.71" waitingTime="284.00" timeLoss="577.49" speed="6.60" speedRelative="0.48" departed="11" arrived="4" entered="74" left="81" laneChangedFrom="0" laneChangedTo="0" teleported="2"/>
        <edge id="-155315693#2" sampledSeconds="3376.66" traveltime="46.44" overlapTraveltime="47.80" density="6.62" laneDensity="6.62" occupancy="3.18" waitingTime="1085.00" timeLoss="1638.48" speed="5.84" speedRelative="0.42" departed="14" arrived="7" entered="66" left="70" laneChangedFrom="0" laneChangedTo="0" teleported="4"/>
        <edge id="-155315693#8" sampledSeconds="540.44" traveltime="49.43" overlapTraveltime="52.19" density="0.71" laneDensity="0.71" occupancy="0.16" waitingTime="22.00" timeLoss="56.35" speed="7.90" speedRelative="0.57" departed="22" arrived="0" entered="0" left="22" laneChangedFrom="0" laneChangedTo="0"/>
        <edge id="-155315694#2" sampledSeconds="3457.97" traveltime="48.34" overlapTraveltime="49.76" density="8.35" laneDensity="8.35" occupancy="3.76" waitingTime="1628.00" timeLoss="2095.33" speed="4.57" speedRelative="0.33" departed="16" arrived="12" entered="63" left="67" laneChangedFrom="0" laneChangedTo="0" teleported="12"/>
        <edge id="-155315694#3" sampledSeconds="414.50" traveltime="5.21" overlapTraveltime="8.15" density="5.44" laneDensity="5.44" occupancy="2.24" waitingTime="120.00" timeLoss="223.06" speed="5.75" speedRelative="0.41" departed="17" arrived="9" entered="45" left="53" laneChangedFrom="0" laneChangedTo="0" teleported="2"/>
        <edge id="-155315695#0" sampledSeconds="14158.54" traveltime="141.68" overlapTraveltime="145.22" density="73.52" laneDensity="73.52" occupancy="35.54" waitingTime="10439.52" timeLoss="13292.59" speed="0.75" speedRelative="0.05" departed="21" arrived="2" entered="160" left="152" laneChangedFrom="0" laneChangedTo="0" teleported="77"/>
        <edge id="-155315695#1" sampledSeconds="1939.41" traveltime="23.16" overlapTraveltime="24.35" density="25.36" laneDensity="25.36" occupancy="12.36" waitingTime="1146.00" timeLoss="1644.99" speed="1.91" speedRelative="0.14" departed="17" arrived="7" entered="89" left="90" laneChangedFrom="0" laneChangedTo="0" teleported="16"/>
        <edge id="-155315695#3" sampledSeconds="3976.95" traveltime="40.71" overlapTraveltime="43.97" density="8.75" laneDensity="8.75" occupancy="3.75" waitingTime="1446.00" timeLoss="2286.00" speed="5.66" speedRelative="0.41" departed="14" arrived="6" entered="92" left="81" laneChangedFrom="0" laneChangedTo="0" teleported="11"/>
        <edge id="-155315695#4" sampledSeconds="559.87" traveltime="6.12" overlapTraveltime="6.70" density="5.90" laneDensity="5.90" occupancy="2.36" waitingTime="58.00" timeLoss="202.60" speed="8.29" speedRelative="0.60" departed="20" arrived="8" entered="75" left="87" laneChangedFrom="0" laneChangedTo="0" teleported="2"/>
        <edge id="-155315711" sampledSeconds="5491.49" traveltime="78.64" overlapTraveltime="81.50" density="36.74" laneDensity="36.74" occupancy="18.94" waitingTime="3805.00" timeLoss="5041.34" speed="1.05" speedRelative="0.08" departed="12" arrived="4" entered="72" left="74" laneChangedFrom="0" laneChangedTo="0" teleported="25"/>
        <edge id="-155315719#0" sampledSeconds="4629.59" traveltime="52.23" overlapTraveltime="53.54" density="5.31" laneDensity="5.31" occupancy="2.29" waitingTime="1002.00" timeLoss="1854.03" speed="8.84" speedRelative="0.40" departed="26" arrived="10" entered="81" left="86" laneChangedFrom="0" laneChangedTo="0" teleported="7"/>
        <edge id="-155315719#1" sampledSeconds="3626.43" traveltime="18.42" overlapTraveltime="20.25" density="12.21" laneDensity="12.21" occupancy="4.88" waitingTime="353.00" timeLoss="1492.85" speed="8.10" speedRelative="0.36" departed="12" arrived="7" entered="175" left="176" laneChangedFrom="0" laneChangedTo="0" teleported="13"/>
        <edge id="-155315719#15" sampledSeconds="498.58" traveltime="75.99" overlapTraveltime="77.09" density="0.30" laneDensity="0.30" occupancy="0.10" waitingTime="0.00" timeLoss="30.44" speed="11.45" speedRelative="0.52" departed="12" arrived="0" entered="0" left="12" laneChangedFrom="0" laneChangedTo="0"/>
        <edge id="-155315719#2" sampledSeconds="1765.48" traveltime="10.35" overlapTraveltime="10.69" density="8.75" laneDensity="8.75" occupancy="3.19" waitingTime="0.00" timeLoss="460.22" speed="10.51" speedRelative="0.47" departed="18" arrived="5" entered="158" left="167" laneChangedFrom="0" laneChangedTo="0"/>
        <edge id="-155315719#8" sampledSeconds="3912.29" traveltime="41.07" overlapTraveltime="42.05" density="5.71" laneDensity="5.71" occupancy="2.22" waitingTime="63.00" timeLoss="1503.65" speed="8.86" speedRelative="0.40" departed="15" arrived="9" entered="89" left="93" laneChangedFrom="0" laneChangedTo="0" teleported="2"/>
        <edge id="-155775198#0" sampledSeconds="8060.57" traveltime="55.41" overlapTraveltime="56.52" density="11.46" laneDensity="11.46" occupancy="4.77" waitingTime="2305.00" timeLoss="3901.32" speed="6.77" speedRelative="0.24" departed="15" arrived="9" entered="136" left="140" laneChangedFrom="0" laneChangedTo="0" teleported="18"/>
        <edge id="-155775198#3" sampledSeconds="15185.79" traveltime="76.85" overlapTraveltime="78.01" density="20.79" laneDensity="20.79" occupancy="9.80" waitingTime="6048.00" timeLoss="9593.24" speed="5.09" speedRelative="0.18" departed="15" arrived="8" entered="189" left="193" laneChangedFrom="0" laneChangedTo="0" teleported="23"/>
        <edge id="-155775198#4" sampledSeconds="3642.70" traveltime="19.11" overlapTraveltime="21.02" density="61.90" laneDensity="61.90" occupancy="26.28" waitingTime="2354.00" timeLoss="3172.31" speed="1.72" speedRelative="0.06" departed="19" arrived="3" entered="171" left="187" laneChangedFrom="0" laneChangedTo="0" teleported="14"/>
        <edge id="-155775198#5" sampledSeconds="1537.97" traveltime="3.68" overlapTraveltime="6.64" density="77.13" laneDensity="77.13" occupancy="28.70" waitingTime="787.00" timeLoss="1247.20" speed="2.43" speedRelative="0.09" departed="11" arrived="8" entered="267" left="269" laneChangedFrom="0" laneChangedTo="0" teleported="7"/>
        <edge id="-155775198#6" sampledSeconds="6704.75" traveltime="24.98" overlapTraveltime="26.84" density="18.19" laneDensity="18.19" occupancy="7.52" waitingTime="1720.00" timeLoss="3217.29" speed="7.54" speedRelative="0.27" departed="18" arrived="5" entered="243" left="256" laneChangedFrom="0" laneChangedTo="0" teleported="26"/>
        <edge id="-155775200#1" sampledSeconds="182906.70" traveltime="373.75" overlapTraveltime="376.01" density="132.76" laneDensity="132.76" occupancy="72.54" waitingTime="86882.00" timeLoss="157771.80" speed="1.98" speedRelative="0.07" departed="7" arrived="1" entered="586" left="465" laneChangedFrom="0" laneChangedTo="0" teleported="217"/>
        <edge id="-163652291" sampledSeconds="3652.86" traveltime="43.14" overlapTraveltime="46.48" density="54.60" laneDensity="54.60" occupancy="28.88" waitingTime="2855.00" timeLoss="3418.71" speed="0.89" speedRelative="0.03" departed="17" arrived="15" entered="76" left="76" laneChangedFrom="0" laneChangedTo="0" teleported="24"/>
        <edge id="-205021436#0" sampledSeconds="95381.97" traveltime="240.47" overlapTraveltime="242.76" density="91.59" laneDensity="91.59" occupancy="47.02" waitingTime="39689.00" timeLoss="80140.36" speed="2.33" speedRelative="0.08" departed="13" arrived="2" entered="528" left="431" laneChangedFrom="0" laneChangedTo="0" teleported="172"/>
        <edge id="-205021436#1" sampledSeconds="10345.75" traveltime="21.57" overlapTraveltime="23.05" density="54.09" laneDensity="54.09" occupancy="26.45" waitingTime="2543.00" timeLoss="7098.79" speed="4.69" speedRelative="0.17" departed="9" arrived="4" entered="472" left="462" laneChangedFrom="0" laneChangedTo="0" teleported="26"/>
        <edge id="-271412010" sampledSeconds="1849.21" traveltime="36.56" overlapTraveltime="37.58" density="3.08" laneDensity="3.08" occupancy="1.53" waitingTime="413.00" timeLoss="669.90" speed="8.74" speedRelative="0.63" departed="12" arrived="8" entered="42" left="46" laneChangedFrom="0" laneChangedTo="0" teleported="5"/>
        <edge id="-31905181#0" sampledSeconds="12699.42" traveltime="65.85" overlapTraveltime="67.64" density="44.87" laneDensity="44.87" occupancy="22.90" waitingTime="5189.71" timeLoss="10124.54" speed="2.33" speedRelative="0.17" departed="18" arrived="5" entered="206" left="200" laneChangedFrom="0" laneChangedTo="0" teleported="46"/>
        <edge id="-31905181#3" sampledSeconds="8956.44" traveltime="49.18" overlapTraveltime="50.14" density="14.34" laneDensity="14.34" occupancy="6.11" waitingTime="153.00" timeLoss="3937.05" speed="6.79" speedRelative="0.49" departed="20" arrived="7" entered="171" left="181" laneChangedFrom="0" laneChangedTo="0" teleported="1"/>
        <edge id="-31905190#0" sampledSeconds="437.57" traveltime="8.44" overlapTraveltime="9.13" density="2.54" laneDensity="2.54" occupancy="0.84" waitingTime="2.00" timeLoss="77.36" speed="10.56" speedRelative="0.76" departed="15" arrived="7" entered="41" left="49" laneChangedFrom="0" laneChangedTo="0"/>
        <edge id="-31905190#3" sampledSeconds="1124.26" traveltime="15.94" overlapTraveltime="16.60" density="3.39" laneDensity="3.39" occupancy="1.11" waitingTime="15.00" timeLoss="94.94" speed="10.94" speedRelative="0.79" departed="19" arrived="9" entered="57" left="66" laneChangedFrom="0" laneChangedTo="0"/>
        <edge id="-31905195#1" sampledSeconds="458.92" traveltime="8.55" overlapTraveltime="9.37" density="3.16" laneDensity="3.16" occupancy="1.17" waitingTime="19.00" timeLoss="124.20" speed="8.77" speedRelative="0.63" departed="18" arrived="15" entered="41" left="43" laneChangedFrom="0" laneChangedTo="0"/>
        <edge id="-31905195#2" sampledSeconds="1041.16" traveltime="16.09" overlapTraveltime="18.28" density="4.89" laneDensity="4.89" occupancy="1.55" waitingTime="326.00" timeLoss="504.20" speed="6.44" speedRelative="0.46" departed="12" arrived="7" entered="52" left="57" laneChangedFrom="0" laneChangedTo="0" teleported="2"/>
        <edge id="-31905201#2" sampledSeconds="3703.88" traveltime="31.89" overlapTraveltime="32.69" density="5.25" laneDensity="5.25" occupancy="2.27" waitingTime="517.39" timeLoss="981.07" speed="11.73" speedRelative="0.42" departed="10" arrived="8" entered="109" left="108" laneChangedFrom="0" laneChangedTo="0" teleported="1"/>
        <edge id="-31905214" sampledSeconds="7208.30" traveltime="39.52" overlapTraveltime="41.03" density="32.59" laneDensity="32.59" occupancy="15.18" waitingTime="4411.00" timeLoss="5737.73" speed="3.01" speedRelative="0.11" departed="19" arrived="8" entered="170" left="175" laneChangedFrom="0" laneChangedTo="0" teleported="42"/>
        <edge id="-322191552" sampledSeconds="59169.73" traveltime="153.84" overlapTraveltime="155.11" density="89.89" laneDensity="89.89" occupancy="39.65" waitingTime="11474.00" timeLoss="49374.39" speed="2.31" speedRelative="0.08" departed="9" arrived="3" entered="584" left="512" laneChangedFrom="0" laneChangedTo="0" teleported="133"/>
        <edge id="-406038877" sampledSeconds="998.93" traveltime="81.74" overlapTraveltime="82.66" density="1.37" laneDensity="1.37" occupancy="0.62" waitingTime="0.00" timeLoss="136.60" speed="4.79" speedRelative="0.86" departed="0" arrived="11" entered="13" left="0" laneChangedFrom="0" laneChangedTo="0"/>
        <edge id="-442885101#0" sampledSeconds="18191.82" traveltime="44.10" overlapTraveltime="45.43" density="75.11" laneDensity="37.56" occupancy="16.96" waitingTime="9569.00" timeLoss="14664.39" speed="2.97" speedRelative="0.11" departed="31" arrived="8" entered="428" left="420" laneChangedFrom="244" laneChangedTo="248" teleported="179"/>