<?xml version="1.0" encoding="UTF-8"?>

<!-- generated on 2025-08-19 15:10:26 by Eclipse SUMO GUI Version 1.23.1
<sumoConfiguration xmlns:xsi="http://www.w3.org/2001/XMLSchema-instance" xsi:noNamespaceSchemaLocation="http://sumo.dlr.de/xsd/sumoConfiguration.xsd">

    <input>
        <net-file value="phuquoc.net.xml"/>
        <route-files value="phuquoc.rou.xml,phuquoc-demo.rou.xml"/>
        <additional-files value="detector.add.xml"/>
    </input>

    <output>
        <tripinfo-output value="../../output/tripinfo_baseline.xml"/>
        <vehroute-output value="../../output/vehroutes_baseline.xml"/>
        <edgedata-output value="../../output/edgedata_baseline.xml"/>
    </output>

    <time>
        <step-length value="0.1"/>
    </time>

    <processing>
        <lateral-resolution value="0.5"/>
        <ignore-route-errors value="true"/>
        <time-to-teleport value="50"/>
        <tls.actuated.jam-threshold value="30"/>
    </processing>

    <routing>
        <device.rerouting.adaptation-steps value="18"/>
        <device.rerouting.adaptation-interval value="10"/>
    </routing>

    <report>
        <verbose value="true"/>
        <duration-log.statistics value="true"/>
        <no-step-log value="true"/>
    </report>

    <gui_only>
        <gui-settings-file value="phuquoc.view.xml"/>
    </gui_only>

</sumoConfiguration>
-->

<meandata xmlns:xsi="http://www.w3.org/2001/XMLSchema-instance" xsi:noNamespaceSchemaLocation="http://sumo.dlr.de/xsd/meandata_file.xsd">
    <interval begin="0.00" end="1862.90" id="DEFAULT_EDGEDATA">
        <edge id="-100954129#0" sampledSeconds="6958.47" traveltime="30.85" overlapTraveltime="31.96" density="63.70" laneDensity="63.70" occupancy="25.15" waitingTime="3600.20" timeLoss="5771.57" speed="1.96" speedRelative="0.14" departed="18" arrived="9" entered="209" left="215" laneChangedFrom="0" laneChangedTo="0" teleported="1"/>
        <edge id="-100954129#1" sampledSeconds="3343.60" traveltime="16.65" overlapTraveltime="17.71" density="33.84" laneDensity="33.84" occupancy="17.14" waitingTime="1353.70" timeLoss="2380.96" speed="3.30" speedRelative="0.24" departed="16" arrived="4" entered="187" left="199" laneChangedFrom="0" laneChangedTo="0" teleported="2"/>
        <edge id="-100954129#3" sampledSeconds="4966.81" traveltime="26.28" overlapTraveltime="27.25" density="39.13" laneDensity="39.13" occupancy="17.43" waitingTime="2325.00" timeLoss="3897.03" speed="2.67" speedRelative="0.19" departed="7" arrived="10" entered="179" left="176" laneChangedFrom="0" laneChangedTo="0" teleported="1"/>
        <edge id="-100954129#4" sampledSeconds="955.36" traveltime="5.44" overlapTraveltime="5.97" density="9.60" laneDensity="9.60" occupancy="4.02" waitingTime="30.70" timeLoss="187.53" speed="9.74" speedRelative="0.70" departed="8" arrived="8" entered="157" left="157" laneChangedFrom="0" laneChangedTo="0"/>
        <edge id="-100954129#5" sampledSeconds="2205.17" traveltime="14.98" overlapTraveltime="15.36" density="7.43" laneDensity="7.43" occupancy="3.13" waitingTime="0.18" timeLoss="327.65" speed="10.66" speedRelative="0.77" departed="14" arrived="9" entered="145" left="149" laneChangedFrom="0" laneChangedTo="0" teleported="2"/>
        <edge id="-100954163#9" sampledSeconds="263.41" traveltime="19.20" overlapTraveltime="20.36" density="0.73" laneDensity="0.73" occupancy="0.23" waitingTime="0.00" timeLoss="22.18" speed="9.66" speedRelative="0.70" departed="19" arrived="3" entered="4" left="20" laneChangedFrom="0" laneChangedTo="0"/>
        <edge id="-100954245#13" sampledSeconds="3876.97" traveltime="131.16" overlapTraveltime="133.93" density="1.43" laneDensity="1.43" occupancy="0.66" waitingTime="646.00" timeLoss="1312.02" speed="10.90" speedRelative="0.49" departed="12" arrived="3" entered="25" left="29" laneChangedFrom="0" laneChangedTo="0" teleported="1"/>
        <edge id="-1056899464#0" sampledSeconds="4412.60" traveltime="22.95" overlapTraveltime="25.94" density="29.88" laneDensity="29.88" occupancy="14.87" waitingTime="1141.10" timeLoss="3180.80" speed="3.27" speedRelative="0.24" departed="13" arrived="3" entered="163" left="173" laneChangedFrom="0" laneChangedTo="0"/>
        <edge id="-1056899464#1" sampledSeconds="2045.60" traveltime="10.21" overlapTraveltime="10.80" density="12.23" laneDensity="12.23" occupancy="5.62" waitingTime="149.30" timeLoss="549.04" speed="8.77" speedRelative="0.63" departed="18" arrived="3" entered="180" left="193" laneChangedFrom="0" laneChangedTo="0"/>
        <edge id="-1117528626#0" sampledSeconds="256.78" traveltime="44.73" overlapTraveltime="47.41" density="0.53" laneDensity="0.53" occupancy="0.18" waitingTime="120.90" timeLoss="148.34" speed="5.59" speedRelative="0.25" departed="9" arrived="0" entered="0" left="9" laneChangedFrom="0" laneChangedTo="0" teleported="1"/>
        <edge id="-1117528626#1" sampledSeconds="1036.69" traveltime="58.69" overlapTraveltime="59.83" density="1.25" laneDensity="1.25" occupancy="0.61" waitingTime="419.99" timeLoss="544.41" speed="7.52" speedRelative="0.34" departed="13" arrived="4" entered="11" left="18" laneChangedFrom="0" laneChangedTo="0" teleported="3"/>
        <edge id="-1117528627#1" sampledSeconds="88.25" traveltime="17.60" overlapTraveltime="17.90" density="0.25" laneDensity="0.25" occupancy="0.08" waitingTime="0.00" timeLoss="6.64" speed="10.99" speedRelative="0.40" departed="0" arrived="5" entered="5" left="0" laneChangedFrom="0" laneChangedTo="0"/>
        <edge id="-1117528627#2" sampledSeconds="1226.08" traveltime="49.33" overlapTraveltime="53.04" density="1.48" laneDensity="1.48" occupancy="0.65" waitingTime="451.20" timeLoss="591.26" speed="8.46" speedRelative="0.30" departed="10" arrived="5" entered="18" left="23" laneChangedFrom="0" laneChangedTo="0"/>
        <edge id="-1135316108" sampledSeconds="8333.72" traveltime="63.64" overlapTraveltime="63.87" density="4.29" laneDensity="4.29" occupancy="1.81" waitingTime="0.00" timeLoss="386.77" speed="16.40" speedRelative="0.74" departed="15" arrived="8" entered="139" left="122" laneChangedFrom="0" laneChangedTo="0"/>
        <edge id="-1135316109" sampledSeconds="2775.85" traveltime="25.52" overlapTraveltime="26.44" density="7.01" laneDensity="7.01" occupancy="2.50" waitingTime="696.08" timeLoss="1241.08" speed="8.18" speedRelative="0.37" departed="14" arrived="5" entered="105" left="107" laneChangedFrom="0" laneChangedTo="0" teleported="1"/>
        <edge id="-1149576119" sampledSeconds="860.17" traveltime="32.51" overlapTraveltime="54.20" density="570.05" laneDensity="570.05" occupancy="41.86" waitingTime="813.17" timeLoss="843.77" speed="0.12" speedRelative="0.01" departed="13" arrived="6" entered="32" left="39" laneChangedFrom="0" laneChangedTo="0" teleported="13"/>
        <edge id="-1149578009" sampledSeconds="277.88" traveltime="12.56" overlapTraveltime="27.35" density="150.67" laneDensity="150.67" occupancy="13.84" waitingTime="248.20" timeLoss="265.42" speed="0.22" speedRelative="0.01" departed="9" arrived="4" entered="10" left="15" laneChangedFrom="0" laneChangedTo="0" teleported="2"/>
        <edge id="-1149578943" sampledSeconds="690.04" traveltime="20.79" overlapTraveltime="30.86" density="165.36" laneDensity="165.36" occupancy="33.20" waitingTime="627.40" timeLoss="671.15" speed="0.20" speedRelative="0.01" departed="16" arrived="2" entered="24" left="37" laneChangedFrom="0" laneChangedTo="0" teleported="6"/>
        <edge id="-1149578944" sampledSeconds="527.32" traveltime="20.06" overlapTraveltime="24.97" density="857.77" laneDensity="857.77" occupancy="21.81" waitingTime="486.00" timeLoss="514.07" speed="0.14" speedRelative="0.01" departed="14" arrived="3" entered="26" left="36" laneChangedFrom="0" laneChangedTo="0" teleported="6"/>
        <edge id="-1149578945" sampledSeconds="618.43" traveltime="25.04" overlapTraveltime="53.18" density="448.61" laneDensity="448.61" occupancy="29.81" waitingTime="586.40" timeLoss="606.15" speed="0.13" speedRelative="0.01" departed="0" arrived="1" entered="35" left="34" laneChangedFrom="0" laneChangedTo="0" teleported="6"/>
        <edge id="-1149579534" sampledSeconds="543.46" traveltime="46.43" overlapTraveltime="49.31" density="1326.04" laneDensity="1326.04" occupancy="18.15" waitingTime="517.30" timeLoss="534.72" speed="0.08" speedRelative="0.00" departed="4" arrived="0" entered="19" left="23" laneChangedFrom="0" laneChangedTo="0" teleported="6"/>
        <edge id="-1149579535" sampledSeconds="1140.91" traveltime="39.30" overlapTraveltime="78.79" density="644.67" laneDensity="644.67" occupancy="57.28" waitingTime="1078.60" timeLoss="1124.86" speed="0.09" speedRelative="0.00" departed="13" arrived="3" entered="31" left="40" laneChangedFrom="0" laneChangedTo="0" teleported="11"/>
        <edge id="-1149580108" sampledSeconds="914.06" traveltime="25.78" overlapTraveltime="41.15" density="353.00" laneDensity="353.00" occupancy="46.01" waitingTime="847.60" timeLoss="889.09" speed="0.19" speedRelative="0.01" departed="10" arrived="7" entered="41" left="43" laneChangedFrom="0" laneChangedTo="0" teleported="10"/>
        <edge id="-1149580109" sampledSeconds="732.87" traveltime="23.32" overlapTraveltime="33.26" density="1967.02" laneDensity="1967.02" occupancy="30.64" waitingTime="680.70" timeLoss="712.66" speed="0.15" speedRelative="0.01" departed="15" arrived="6" entered="26" left="34" laneChangedFrom="0" laneChangedTo="0" teleported="6"/>
        <edge id="-1149580110" sampledSeconds="363.15" traveltime="12.77" overlapTraveltime="18.90" density="974.69" laneDensity="974.69" occupancy="15.87" waitingTime="326.30" timeLoss="347.73" speed="0.20" speedRelative="0.01" departed="9" arrived="5" entered="22" left="26" laneChangedFrom="0" laneChangedTo="0" teleported="4"/>
        <edge id="-1149580308" sampledSeconds="470.71" traveltime="18.31" overlapTraveltime="37.77" density="238.37" laneDensity="238.37" occupancy="23.01" waitingTime="439.10" timeLoss="456.81" speed="0.19" speedRelative="0.01" departed="3" arrived="3" entered="25" left="24" laneChangedFrom="0" laneChangedTo="0" teleported="8"/>
        <edge id="-1149581388" sampledSeconds="2317.71" traveltime="12.97" overlapTraveltime="13.40" density="9.01" laneDensity="9.01" occupancy="3.68" waitingTime="0.09" timeLoss="694.84" speed="10.63" speedRelative="0.48" departed="9" arrived="1" entered="178" left="186" laneChangedFrom="0" laneChangedTo="0"/>
        <edge id="-1149582046#3" sampledSeconds="2248.63" traveltime="204.37" overlapTraveltime="204.57" density="0.60" laneDensity="0.30" occupancy="0.06" waitingTime="0.00" timeLoss="19.61" speed="9.89" speedRelative="0.36" departed="0" arrived="11" entered="11" left="0" laneChangedFrom="2" laneChangedTo="2"/>
        <edge id="-1270367191#1" sampledSeconds="4937.82" traveltime="31.02" overlapTraveltime="32.84" density="10.49" laneDensity="10.49" occupancy="4.06" waitingTime="940.50" timeLoss="2439.28" speed="7.82" speedRelative="0.28" departed="10" arrived="2" entered="151" left="151" laneChangedFrom="0" laneChangedTo="0" teleported="1"/>
        <edge id="-1270367191#2" sampledSeconds="1677.14" traveltime="2.90" overlapTraveltime="8.58" density="219.05" laneDensity="219.05" occupancy="43.77" waitingTime="1340.10" timeLoss="1548.53" speed="0.93" speedRelative="0.03" departed="24" arrived="5" entered="194" left="212" laneChangedFrom="0" laneChangedTo="0" teleported="1"/>
        <edge id="-1307054560#0" sampledSeconds="13998.12" traveltime="63.50" overlapTraveltime="67.73" density="267.31" laneDensity="267.31" occupancy="106.50" waitingTime="10659.76" timeLoss="13502.51" speed="0.48" speedRelative="0.02" departed="12" arrived="2" entered="221" left="229" laneChangedFrom="0" laneChangedTo="0" teleported="30"/>
        <edge id="-1307054560#1" sampledSeconds="17137.27" traveltime="70.75" overlapTraveltime="81.21" density="179.99" laneDensity="179.99" occupancy="81.06" waitingTime="10638.96" timeLoss="16336.91" speed="0.69" speedRelative="0.02" departed="16" arrived="2" entered="209" left="222" laneChangedFrom="0" laneChangedTo="0" teleported="7"/>
        <edge id="-1307054560#2" sampledSeconds="16466.43" traveltime="73.05" overlapTraveltime="80.66" density="83.99" laneDensity="83.99" occupancy="45.65" waitingTime="8315.70" timeLoss="14933.28" speed="1.38" speedRelative="0.05" departed="10" arrived="3" entered="200" left="207" laneChangedFrom="0" laneChangedTo="0" teleported="8"/>
        <edge id="-1307054560#3" sampledSeconds="2359.82" traveltime="10.47" overlapTraveltime="11.95" density="11.88" laneDensity="11.88" occupancy="4.83" waitingTime="360.50" timeLoss="881.36" speed="9.29" speedRelative="0.33" departed="12" arrived="1" entered="191" left="202" laneChangedFrom="0" laneChangedTo="0" teleported="1"/>
        <edge id="-1307054560#4" sampledSeconds="1795.86" traveltime="8.93" overlapTraveltime="9.36" density="8.20" laneDensity="8.20" occupancy="3.09" waitingTime="53.20" timeLoss="215.93" speed="12.98" speedRelative="0.47" departed="15" arrived="2" entered="184" left="197" laneChangedFrom="0" laneChangedTo="0"/>
        <edge id="-1307054560#5" sampledSeconds="2084.20" traveltime="10.87" overlapTraveltime="11.21" density="9.03" laneDensity="9.03" occupancy="3.44" waitingTime="3.20" timeLoss="416.71" speed="11.42" speedRelative="0.41" departed="17" arrived="3" entered="175" left="189" laneChangedFrom="0" laneChangedTo="0"/>
        <edge id="-152227686#0" sampledSeconds="1203.65" traveltime="6.50" overlapTraveltime="7.28" density="11.63" laneDensity="11.63" occupancy="5.25" waitingTime="202.60" timeLoss="364.08" speed="8.33" speedRelative="0.60" departed="17" arrived="9" entered="160" left="164" laneChangedFrom="0" laneChangedTo="0"/>
        <edge id="-152227686#1" sampledSeconds="404.83" traveltime="2.28" overlapTraveltime="2.75" density="10.94" laneDensity="10.94" occupancy="3.93" waitingTime="0.00" timeLoss="89.15" speed="8.99" speedRelative="0.65" departed="16" arrived="6" entered="142" left="151" laneChangedFrom="0" laneChangedTo="0"/>
        <edge id="-152227686#2" sampledSeconds="54.83" traveltime="0.61" overlapTraveltime="2.37" density="7.34" laneDensity="7.34" occupancy="1.79" waitingTime="16.80" timeLoss="31.75" speed="4.30" speedRelative="0.31" departed="15" arrived="2" entered="14" left="27" laneChangedFrom="0" laneChangedTo="0"/>
        <edge id="-152227686#6" sampledSeconds="306.29" traveltime="22.25" overlapTraveltime="22.66" density="0.57" laneDensity="0.57" occupancy="0.25" waitingTime="0.00" timeLoss="8.09" speed="12.95" speedRelative="0.93" departed="11" arrived="8" entered="10" left="12" laneChangedFrom="0" laneChangedTo="0"/>
        <edge id="-152227697#2" sampledSeconds="35.99" traveltime="11.93" overlapTraveltime="12.16" density="0.09" laneDensity="0.09" occupancy="0.04" waitingTime="0.00" timeLoss="3.97" speed="18.51" speedRelative="0.83" departed="0" arrived="3" entered="3" left="0" laneChangedFrom="0" laneChangedTo="0"/>
        <edge id="-152227697#3" sampledSeconds="282.57" traveltime="1.22" overlapTraveltime="3.22" density="43.97" laneDensity="43.97" occupancy="8.86" waitingTime="80.20" timeLoss="181.37" speed="2.78" speedRelative="0.13" departed="19" arrived="4" entered="91" left="106" laneChangedFrom="0" laneChangedTo="0"/>
        <edge id="-155315678#4" sampledSeconds="15301.76" traveltime="105.67" overlapTraveltime="107.08" density="12.69" laneDensity="12.69" occupancy="5.74" waitingTime="5783.10" timeLoss="10096.26" speed="6.09" speedRelative="0.27" departed="12" arrived="10" entered="139" left="129" laneChangedFrom="0" laneChangedTo="0" teleported="10"/>
        <edge id="-155315678#5" sampledSeconds="6205.03" traveltime="44.24" overlapTraveltime="46.01" density="12.35" laneDensity="12.35" occupancy="4.91" waitingTime="2044.20" timeLoss="3670.75" speed="5.95" speedRelative="0.27" departed="18" arrived="7" entered="128" left="135" laneChangedFrom="0" laneChangedTo="0" teleported="2"/>
        <edge id="-155315680#1" sampledSeconds="644.73" traveltime="10.53" overlapTraveltime="12.45" density="3.47" laneDensity="3.47" occupancy="1.34" waitingTime="58.70" timeLoss="141.50" speed="8.36" speedRelative="0.60" departed="18" arrived="3" entered="43" left="57" laneChangedFrom="0" laneChangedTo="0"/>
        <edge id="-155315682" sampledSeconds="822.06" traveltime="10.91" overlapTraveltime="11.68" density="4.31" laneDensity="4.31" occupancy="1.58" waitingTime="25.60" timeLoss="216.97" speed="9.10" speedRelative="0.66" departed="16" arrived="8" entered="63" left="71" laneChangedFrom="0" laneChangedTo="0"/>
        <edge id="-155315683" sampledSeconds="1308.02" traveltime="40.18" overlapTraveltime="41.24" density="3.48" laneDensity="3.48" occupancy="1.39" waitingTime="644.50" timeLoss="814.36" speed="5.00" speedRelative="0.36" departed="13" arrived="5" entered="24" left="32" laneChangedFrom="0" laneChangedTo="0" teleported="6"/>
        <edge id="-155315688#0" sampledSeconds="517.98" traveltime="12.89" overlapTraveltime="14.04" density="4.18" laneDensity="4.18" occupancy="1.67" waitingTime="207.60" timeLoss="308.61" speed="5.04" speedRelative="0.36" departed="14" arrived="10" entered="30" left="34" laneChangedFrom="0" laneChangedTo="0" teleported="1"/>
        <edge id="-155315688#1" sampledSeconds="1318.34" traveltime="11.35" overlapTraveltime="12.89" density="7.67" laneDensity="7.67" occupancy="3.12" waitingTime="245.20" timeLoss="522.32" speed="7.51" speedRelative="0.54" departed="11" arrived="4" entered="98" left="104" laneChangedFrom="0" laneChangedTo="0" teleported="1"/>
        <edge id="-155315693#2" sampledSeconds="2292.27" traveltime="45.77" overlapTraveltime="46.84" density="4.49" laneDensity="4.49" occupancy="1.83" waitingTime="750.50" timeLoss="1017.08" speed="5.94" speedRelative="0.43" departed="14" arrived="5" entered="43" left="52" laneChangedFrom="0" laneChangedTo="0" teleported="1"/>
        <edge id="-155315693#8" sampledSeconds="444.63" traveltime="42.51" overlapTraveltime="42.96" density="0.58" laneDensity="0.58" occupancy="0.17" waitingTime="0.00" timeLoss="8.40" speed="9.61" speedRelative="0.69" departed="22" arrived="0" entered="0" left="22" laneChangedFrom="0" laneChangedTo="0"/>
        <edge id="-155315694#2" sampledSeconds="4307.02" traveltime="52.11" overlapTraveltime="53.27" density="10.38" laneDensity="10.38" occupancy="4.24" waitingTime="2198.30" timeLoss="2797.49" speed="4.26" speedRelative="0.31" departed="16" arrived="12" entered="72" left="74" laneChangedFrom="0" laneChangedTo="0" teleported="3"/>
        <edge id="-155315694#3" sampledSeconds="321.84" traveltime="5.20" overlapTraveltime="6.37" density="4.21" laneDensity="4.21" occupancy="1.82" waitingTime="50.70" timeLoss="136.63" speed="7.23" speedRelative="0.52" departed="17" arrived="9" entered="43" left="51" laneChangedFrom="0" laneChangedTo="0"/>
        <edge id="-155315695#0" sampledSeconds="19598.29" traveltime="132.52" overlapTraveltime="134.15" density="101.61" laneDensity="101.61" occupancy="40.30" waitingTime="13366.64" timeLoss="18299.50" speed="0.80" speedRelative="0.06" departed="21" arrived="2" entered="155" left="152" laneChangedFrom="0" laneChangedTo="0" teleported="15"/>
        <edge id="-155315695#1" sampledSeconds="3895.92" traveltime="39.80" overlapTraveltime="40.67" density="50.87" laneDensity="50.87" occupancy="21.93" waitingTime="2594.60" timeLoss="3549.32" speed="1.13" speedRelative="0.08" departed="16" arrived="5" entered="97" left="99" laneChangedFrom="0" laneChangedTo="0" teleported="4"/>
        <edge id="-155315695#3" sampledSeconds="5164.07" traveltime="53.83" overlapTraveltime="58.17" density="11.34" laneDensity="11.34" occupancy="5.62" waitingTime="1863.20" timeLoss="3399.42" speed="4.29" speedRelative="0.31" departed="14" arrived="7" entered="82" left="85" laneChangedFrom="0" laneChangedTo="0"/>
        <edge id="-155315695#4" sampledSeconds="498.64" traveltime="6.85" overlapTraveltime="7.33" density="5.24" laneDensity="5.24" occupancy="2.15" waitingTime="83.60" timeLoss="179.50" speed="7.60" speedRelative="0.55" departed="20" arrived="6" entered="57" left="71" laneChangedFrom="0" laneChangedTo="0" teleported="1"/>
        <edge id="-155315711" sampledSeconds="6273.07" traveltime="95.77" overlapTraveltime="97.67" density="41.90" laneDensity="41.90" occupancy="18.78" waitingTime="4183.10" timeLoss="5859.31" speed="0.87" speedRelative="0.06" departed="12" arrived="6" entered="60" left="65" laneChangedFrom="0" laneChangedTo="0" teleported="5"/>
        <edge id="-155315719#0" sampledSeconds="8226.55" traveltime="114.72" overlapTraveltime="116.01" density="9.42" laneDensity="9.42" occupancy="4.91" waitingTime="3683.90" timeLoss="5970.02" speed="4.09" speedRelative="0.18" departed="26" arrived="6" entered="58" left="78" laneChangedFrom="0" laneChangedTo="0" teleported="7"/>
        <edge id="-155315719#1" sampledSeconds="4754.38" traveltime="23.69" overlapTraveltime="25.64" density="15.99" laneDensity="15.99" occupancy="6.60" waitingTime="968.70" timeLoss="2548.55" speed="6.40" speedRelative="0.29" departed="12" arrived="8" entered="181" left="179" laneChangedFrom="0" laneChangedTo="0" teleported="1"/>
        <edge id="-155315719#15" sampledSeconds="368.50" traveltime="76.46" overlapTraveltime="76.73" density="0.22" laneDensity="0.22" occupancy="0.08" waitingTime="0.00" timeLoss="5.16" speed="11.51" speedRelative="0.52" departed="12" arrived="0" entered="0" left="12" laneChangedFrom="0" laneChangedTo="0"/>
        <edge id="-155315719#2" sampledSeconds="1714.57" traveltime="9.70" overlapTraveltime="10.03" density="8.49" laneDensity="8.49" occupancy="3.18" waitingTime="0.00" timeLoss="355.34" speed="11.21" speedRelative="0.50" departed="18" arrived="5" entered="162" left="174" laneChangedFrom="0" laneChangedTo="0"/>
        <edge id="-155315719#8" sampledSeconds="3140.83" traveltime="31.74" overlapTraveltime="32.22" density="4.58" laneDensity="4.58" occupancy="1.89" waitingTime="2.50" timeLoss="707.86" speed="11.56" speedRelative="0.52" departed="15" arrived="9" entered="93" left="92" laneChangedFrom="0" laneChangedTo="0"/>
        <edge id="-155775198#0" sampledSeconds="6106.78" traveltime="43.21" overlapTraveltime="44.07" density="8.67" laneDensity="8.67" occupancy="3.25" waitingTime="929.30" timeLoss="1957.76" speed="8.67" speedRelative="0.31" departed="15" arrived="7" entered="135" left="135" laneChangedFrom="0" laneChangedTo="0"/>
        <edge id="-155775198#3" sampledSeconds="8296.39" traveltime="57.41" overlapTraveltime="58.60" density="11.34" laneDensity="11.34" occupancy="4.67" waitingTime="1779.90" timeLoss="3558.36" speed="6.77" speedRelative="0.24" departed="15" arrived="9" entered="134" left="135" laneChangedFrom="0" laneChangedTo="0" teleported="1"/>
        <edge id="-155775198#4" sampledSeconds="2597.99" traveltime="19.47" overlapTraveltime="21.40" density="44.08" laneDensity="44.08" occupancy="18.14" waitingTime="1626.90" timeLoss="2231.41" speed="1.69" speedRelative="0.06" departed="19" arrived="5" entered="115" left="124" laneChangedFrom="0" laneChangedTo="0"/>
        <edge id="-155775198#5" sampledSeconds="989.01" traveltime="2.35" overlapTraveltime="4.71" density="49.52" laneDensity="49.52" occupancy="19.28" waitingTime="334.70" timeLoss="716.25" speed="3.61" speedRelative="0.13" departed="11" arrived="8" entered="238" left="240" laneChangedFrom="0" laneChangedTo="0"/>
        <edge id="-155775198#6" sampledSeconds="5390.73" traveltime="26.37" overlapTraveltime="28.59" density="14.60" laneDensity="14.60" occupancy="6.00" waitingTime="1392.30" timeLoss="2751.21" speed="7.08" speedRelative="0.25" departed="18" arrived="3" entered="182" left="194" laneChangedFrom="0" laneChangedTo="0" teleported="3"/>
        <edge id="-155775200#1" sampledSeconds="238005.51" traveltime="481.10" overlapTraveltime="483.08" density="172.48" laneDensity="172.48" occupancy="76.81" waitingTime="118355.20" timeLoss="212665.77" speed="1.54" speedRelative="0.06" departed="8" arrived="1" entered="574" left="360" laneChangedFrom="0" laneChangedTo="0" teleported="26"/>
        <edge id="-163652291" sampledSeconds="4247.83" traveltime="47.94" overlapTraveltime="50.69" density="63.39" laneDensity="63.39" occupancy="28.15" waitingTime="3265.20" timeLoss="4010.47" speed="0.80" speedRelative="0.03" departed="18" arrived="15" entered="74" left="74" laneChangedFrom="0" laneChangedTo="0" teleported="10"/>
        <edge id="-205021436#0" sampledSeconds="138062.07" traveltime="359.47" overlapTraveltime="361.84" density="132.36" laneDensity="132.36" occupancy="57.35" waitingTime="52929.20" timeLoss="123089.86" speed="1.56" speedRelative="0.06" departed="10" arrived="3" entered="451" left="309" laneChangedFrom="0" laneChangedTo="0" teleported="12"/>
        <edge id="-205021436#1" sampledSeconds="10254.26" traveltime="27.04" overlapTraveltime="28.66" density="53.52" laneDensity="53.52" occupancy="22.83" waitingTime="3051.86" timeLoss="7608.53" speed="3.75" speedRelative="0.13" departed="9" arrived="3" entered="364" left="348" laneChangedFrom="0" laneChangedTo="0" teleported="1"/>
        <edge id="-271412010" sampledSeconds="1768.32" traveltime="42.47" overlapTraveltime="43.66" density="2.94" laneDensity="2.94" occupancy="1.33" waitingTime="575.70" timeLoss="804.21" speed="7.51" speedRelative="0.54" departed="12" arrived="6" entered="38" left="41" laneChangedFrom="0" laneChangedTo="0" teleported="4"/>
        <edge id="-31905181#0" sampledSeconds="12657.14" traveltime="57.11" overlapTraveltime="58.63" density="44.65" laneDensity="44.65" occupancy="19.54" waitingTime="4881.00" timeLoss="9729.87" speed="2.67" speedRelative="0.19" departed="17" arrived="3" entered="221" left="212" laneChangedFrom="0" laneChangedTo="0" teleported="2"/>
        <edge id="-31905181#3" sampledSeconds="11494.11" traveltime="53.08" overlapTraveltime="54.23" density="18.37" laneDensity="18.37" occupancy="7.65" waitingTime="1594.30" timeLoss="5511.72" speed="6.27" speedRelative="0.45" departed="20" arrived="4" entered="210" left="195" laneChangedFrom="0" laneChangedTo="0"/>
        <edge id="-31905190#0" sampledSeconds="304.32" traveltime="7.94" overlapTraveltime="8.48" density="1.76" laneDensity="1.76" occupancy="0.53" waitingTime="0.00" timeLoss="39.64" speed="11.32" speedRelative="0.82" departed="15" arrived="7" entered="30" left="38" laneChangedFrom="0" laneChangedTo="0"/>
        <edge id="-31905190#3" sampledSeconds="985.14" traveltime="15.39" overlapTraveltime="16.11" density="2.97" laneDensity="2.97" occupancy="1.03" waitingTime="11.50" timeLoss="86.19" speed="11.28" speedRelative="0.81" departed="19" arrived="8" entered="51" left="62" laneChangedFrom="0" laneChangedTo="0"/>
        <edge id="-31905195#1" sampledSeconds="521.97" traveltime="10.82" overlapTraveltime="11.84" density="3.59" laneDensity="3.59" occupancy="1.65" waitingTime="84.00" timeLoss="198.15" speed="7.02" speedRelative="0.51" departed="18" arrived="10" entered="35" left="41" laneChangedFrom="0" laneChangedTo="0"/>
        <edge id="-31905195#2" sampledSeconds="1137.41" traveltime="25.42" overlapTraveltime="27.65" density="5.34" laneDensity="5.34" occupancy="2.00" waitingTime="593.80" timeLoss="748.91" speed="4.28" speedRelative="0.31" departed="12" arrived="6" entered="36" left="41" laneChangedFrom="0" laneChangedTo="0" teleported="6"/>
        <edge id="-31905201#2" sampledSeconds="2509.65" traveltime="26.69" overlapTraveltime="27.62" density="3.55" laneDensity="3.55" occupancy="1.43" waitingTime="155.10" timeLoss="362.34" speed="13.88" speedRelative="0.50" departed="10" arrived="7" entered="86" left="89" laneChangedFrom="0" laneChangedTo="0" teleported="1"/>
        <edge id="-31905214" sampledSeconds="10005.14" traveltime="43.11" overlapTraveltime="44.49" density="45.16" laneDensity="45.16" occupancy="20.63" waitingTime="5612.50" timeLoss="8187.75" speed="2.78" speedRelative="0.10" departed="19" arrived="8" entered="214" left="221" laneChangedFrom="0" laneChangedTo="0" teleported="24"/>
        <edge id="-322191552" sampledSeconds="59743.58" traveltime="118.53" overlapTraveltime="119.48" density="90.62" laneDensity="90.62" occupancy="36.10" waitingTime="11880.30" timeLoss="47359.14" speed="3.00" speedRelative="0.11" departed="13" arrived="4" entered="569" left="487" laneChangedFrom="0" laneChangedTo="0" teleported="3"/>
        <edge id="-406038877" sampledSeconds="684.59" traveltime="68.43" overlapTraveltime="69.36" density="0.94" laneDensity="0.94" occupancy="0.49" waitingTime="0.00" timeLoss="8.11" speed="5.72" speedRelative="1.03" departed="0" arrived="10" entered="10" left="0" laneChangedFrom="0" laneChangedTo="0"/>
        <edge id="-442885101#0" sampledSeconds="25952.26" traveltime="65.70" overlapTraveltime="66.72" density="106.99" laneDensity="53.49" occupancy="21.72" waitingTime="13529.60" timeLoss="22423.17" speed="2.01" speedRelative="0.07" departed="31" arrived="6" entered="386" left="373" laneChangedFrom="261" laneChangedTo="265" teleported="46"/>
        <edge id="-442885101#1" sampledSeconds="1854.75" traveltime="3.66" overlapTraveltime="4.12" density="27.50" laneDensity="13.75" occupancy="4.79" waitingTime="34.40" timeLoss="608.84" speed="9.77" speedRelative="0.35" departed="25" arrived="15" entered="437" left="445" laneChangedFrom="40" laneChangedTo="40"/>
        <edge id="-442885101#2" sampledSeconds="2482.49" traveltime="5.26" overlapTraveltime="5.73" density="27.08" laneDensity="13.54" occupancy="4.97" waitingTime="27.30" timeLoss="938.31" speed="9.32" speedRelative="0.34" departed="21" arrived="10" entered="425" left="435" laneChangedFrom="68" laneChangedTo="69"/>
        <edge id="-442885355#1" sampledSeconds="9138.42" traveltime="35.10" overlapTraveltime="36.38" density="77.51" laneDensity="77.51" occupancy="29.76" waitingTime="5159.60" timeLoss="8072.53" speed="1.85" speedRelative="0.07" departed="9" arrived="2" entered="261" left="255" laneChangedFrom="0" laneChangedTo="0" teleported="6"/>