<?xml version="1.0" encoding="UTF-8"?>

<!-- generated on 2025-08-16 18:35:11 by Eclipse SUMO GUI Version 1.23.1
<sumoConfiguration xmlns:xsi="http://www.w3.org/2001/XMLSchema-instance" xsi:noNamespaceSchemaLocation="http://sumo.dlr.de/xsd/sumoConfiguration.xsd">

    <input>
        <net-file value="src\PhuQuoc/phuquoc.net.xml"/>
        <route-files value="src\PhuQuoc/phuquoc.rou.xml,src\PhuQuoc/ caugiay-demo.rou.xml"/>
        <additional-files value="src\PhuQuoc/detector.add.xml"/>
    </input>

    <output>
        <edgedata-output value="D:\He_thong_giao_thong_thich_ung\Algorithms_code\PC_Algorithms\output\edgedata.xml"/>
    </output>

    <time>
        <step-length value="1"/>
    </time>

    <processing>
        <lateral-resolution value="0.5"/>
        <ignore-route-errors value="true"/>
        <tls.actuated.jam-threshold value="30"/>
    </processing>

    <routing>
        <device.rerouting.adaptation-steps value="18"/>
        <device.rerouting.adaptation-interval value="10"/>
    </routing>

    <report>
        <verbose value="true"/>
        <log value="D:\He_thong_giao_thong_thich_ung\Algorithms_code\PC_Algorithms\output\sumo_log.txt"/>
        <duration-log.statistics value="true"/>
        <no-step-log value="true"/>
    </report>

    <traci_server>
        <remote-port value="8814"/>
    </traci_server>

    <gui_only>
        <gui-settings-file value="src\PhuQuoc/phuquoc.view.xml"/>
        <start value="true"/>
    </gui_only>

</sumoConfiguration>
-->

<meandata xmlns:xsi="http://www.w3.org/2001/XMLSchema-instance" xsi:noNamespaceSchemaLocation="http://sumo.dlr.de/xsd/meandata_file.xsd">
    <interval begin="0.00" end="3600.00" id="DEFAULT_EDGEDATA">
        <edge id="-100954129#0" sampledSeconds="40344.63" traveltime="257.00" overlapTraveltime="259.76" density="191.11" laneDensity="191.11" occupancy="67.68" waitingTime="35816.00" timeLoss="39477.15" speed="0.24" speedRelative="0.02" departed="13" arrived="1" entered="211" left="209" laneChangedFrom="0" laneChangedTo="0" teleported="8"/>
        <edge id="-100954129#1" sampledSeconds="28593.35" traveltime="235.25" overlapTraveltime="237.94" density="149.75" laneDensity="149.75" occupancy="64.89" waitingTime="25924.27" timeLoss="27987.24" speed="0.24" speedRelative="0.02" departed="23" arrived="2" entered="167" left="176" laneChangedFrom="0" laneChangedTo="0" teleported="6"/>
        <edge id="-100954129#3" sampledSeconds="40560.01" traveltime="435.00" overlapTraveltime="441.02" density="165.37" laneDensity="165.37" occupancy="68.62" waitingTime="37666.00" timeLoss="39906.06" speed="0.16" speedRelative="0.01" departed="7" arrived="0" entered="167" left="154" laneChangedFrom="0" laneChangedTo="0" teleported="7"/>
        <edge id="-100954129#4" sampledSeconds="32855.98" traveltime="417.42" overlapTraveltime="420.09" density="170.91" laneDensity="170.91" occupancy="64.28" waitingTime="31203.88" timeLoss="32417.29" speed="0.14" speedRelative="0.01" departed="10" arrived="2" entered="140" left="132" laneChangedFrom="0" laneChangedTo="0" teleported="7"/>
        <edge id="-100954129#5" sampledSeconds="64242.23" traveltime="1270.88" overlapTraveltime="1277.12" density="112.05" laneDensity="112.05" occupancy="52.70" waitingTime="61004.00" timeLoss="63441.88" speed="0.13" speedRelative="0.01" departed="40" arrived="2" entered="91" left="95" laneChangedFrom="0" laneChangedTo="0" teleported="8"/>
        <edge id="-100954163#8" sampledSeconds="3.52" traveltime="3.13" overlapTraveltime="3.52" density="0.02" laneDensity="0.02" occupancy="0.01" waitingTime="0.00" timeLoss="0.05" speed="12.75" speedRelative="0.92" departed="0" arrived="1" entered="1" left="0" laneChangedFrom="0" laneChangedTo="0"/>
        <edge id="-100954163#9" sampledSeconds="86814.41" traveltime="2328.21" overlapTraveltime="2343.02" density="124.68" laneDensity="124.68" occupancy="48.43" waitingTime="82523.35" timeLoss="86070.40" speed="0.08" speedRelative="0.01" departed="72" arrived="0" entered="3" left="42" laneChangedFrom="0" laneChangedTo="0" teleported="8"/>
        <edge id="-100954245#13" sampledSeconds="99772.11" traveltime="1140.75" overlapTraveltime="1148.20" density="19.05" laneDensity="19.05" occupancy="8.85" waitingTime="81286.00" timeLoss="91424.15" speed="1.27" speedRelative="0.06" departed="118" arrived="2" entered="36" left="86" laneChangedFrom="0" laneChangedTo="0" teleported="4"/>
        <edge id="-1056899464#0" sampledSeconds="58509.95" traveltime="606.58" overlapTraveltime="639.65" density="205.03" laneDensity="205.03" occupancy="73.90" waitingTime="52987.00" timeLoss="57813.73" speed="0.13" speedRelative="0.01" departed="12" arrived="0" entered="108" left="94" laneChangedFrom="0" laneChangedTo="0" teleported="1"/>
        <edge id="-1056899464#1" sampledSeconds="51978.22" traveltime="454.07" overlapTraveltime="465.57" density="160.84" laneDensity="160.84" occupancy="72.67" waitingTime="47561.14" timeLoss="50952.87" speed="0.20" speedRelative="0.01" departed="31" arrived="3" entered="105" left="114" laneChangedFrom="0" laneChangedTo="0" teleported="6"/>
        <edge id="-1117528626#0" sampledSeconds="97707.03" traveltime="4025.59" overlapTraveltime="4085.54" density="103.77" laneDensity="103.77" occupancy="48.22" waitingTime="93691.00" timeLoss="97329.93" speed="0.07" speedRelative="0.00" departed="55" arrived="0" entered="0" left="16" laneChangedFrom="0" laneChangedTo="0" teleported="8"/>
        <edge id="-1117528626#1" sampledSeconds="60232.72" traveltime="859.38" overlapTraveltime="865.73" density="37.60" laneDensity="37.60" occupancy="16.08" waitingTime="52103.00" timeLoss="58133.59" speed="0.52" speedRelative="0.02" departed="109" arrived="0" entered="25" left="76" laneChangedFrom="0" laneChangedTo="0" teleported="1"/>
        <edge id="-1117528627#0" sampledSeconds="50779.03" traveltime="888.59" overlapTraveltime="891.02" density="56.33" laneDensity="56.33" occupancy="27.16" waitingTime="46286.00" timeLoss="49993.99" speed="0.29" speedRelative="0.01" departed="97" arrived="2" entered="13" left="71" laneChangedFrom="0" laneChangedTo="0" teleported="4"/>
        <edge id="-1117528627#1" sampledSeconds="52048.02" traveltime="1444.45" overlapTraveltime="1482.85" density="75.37" laneDensity="75.37" occupancy="37.52" waitingTime="49129.00" timeLoss="51634.60" speed="0.13" speedRelative="0.00" departed="75" arrived="2" entered="5" left="50" laneChangedFrom="0" laneChangedTo="0"/>
        <edge id="-1117528627#2" sampledSeconds="170926.67" traveltime="1890.96" overlapTraveltime="1901.95" density="106.93" laneDensity="106.93" occupancy="49.89" waitingTime="153528.00" timeLoss="168782.17" speed="0.24" speedRelative="0.01" departed="72" arrived="2" entered="75" left="72" laneChangedFrom="0" laneChangedTo="0" teleported="8"/>
        <edge id="-1135316108" sampledSeconds="7119.30" traveltime="67.67" overlapTraveltime="67.84" density="1.90" laneDensity="1.90" occupancy="0.74" waitingTime="0.00" timeLoss="444.66" speed="15.43" speedRelative="0.69" departed="107" arrived="2" entered="51" left="156" laneChangedFrom="0" laneChangedTo="0"/>
        <edge id="-1135316109" sampledSeconds="120400.45" traveltime="1544.83" overlapTraveltime="1551.66" density="157.39" laneDensity="157.39" occupancy="63.70" waitingTime="111610.00" timeLoss="119272.97" speed="0.14" speedRelative="0.01" departed="56" arrived="2" entered="89" left="99" laneChangedFrom="0" laneChangedTo="0" teleported="12"/>
        <edge id="-1149576119" sampledSeconds="2540.92" traveltime="169.16" overlapTraveltime="222.61" density="871.37" laneDensity="871.37" occupancy="63.18" waitingTime="2503.00" timeLoss="2531.75" speed="0.02" speedRelative="0.00" departed="21" arrived="1" entered="14" left="33" laneChangedFrom="0" laneChangedTo="0" teleported="8"/>
        <edge id="-1149578009" sampledSeconds="2462.22" traveltime="346.83" overlapTraveltime="471.33" density="690.86" laneDensity="690.86" occupancy="63.05" waitingTime="2442.00" timeLoss="2458.93" speed="0.01" speedRelative="0.00" departed="7" arrived="0" entered="4" left="11" laneChangedFrom="0" laneChangedTo="0" teleported="4"/>
        <edge id="-1149578943" sampledSeconds="2471.88" traveltime="116.20" overlapTraveltime="163.26" density="306.53" laneDensity="306.53" occupancy="63.20" waitingTime="2421.00" timeLoss="2459.74" speed="0.03" speedRelative="0.00" departed="8" arrived="0" entered="26" left="34" laneChangedFrom="0" laneChangedTo="0" teleported="7"/>
        <edge id="-1149578944" sampledSeconds="2515.40" traveltime="151.53" overlapTraveltime="259.23" density="2117.34" laneDensity="2117.34" occupancy="44.60" waitingTime="2488.00" timeLoss="2507.92" speed="0.01" speedRelative="0.00" departed="11" arrived="0" entered="8" left="18" laneChangedFrom="0" laneChangedTo="0" teleported="4"/>
        <edge id="-1149578945" sampledSeconds="1519.67" traveltime="137.14" overlapTraveltime="431.68" density="570.45" laneDensity="570.45" occupancy="38.69" waitingTime="1505.30" timeLoss="1514.72" speed="0.02" speedRelative="0.00" departed="6" arrived="0" entered="11" left="17" laneChangedFrom="0" laneChangedTo="0" teleported="3"/>
        <edge id="-1149579534" sampledSeconds="2316.03" traveltime="267.52" overlapTraveltime="228.02" density="2924.28" laneDensity="2924.28" occupancy="36.00" waitingTime="2286.83" timeLoss="2309.23" speed="0.02" speedRelative="0.00" departed="11" arrived="0" entered="11" left="20" laneChangedFrom="0" laneChangedTo="0" teleported="6"/>
        <edge id="-1149579535" sampledSeconds="2436.03" traveltime="412.75" overlapTraveltime="544.51" density="712.29" laneDensity="712.29" occupancy="60.93" waitingTime="2421.00" timeLoss="2433.60" speed="0.01" speedRelative="0.00" departed="8" arrived="1" entered="18" left="25" laneChangedFrom="0" laneChangedTo="0" teleported="9"/>
        <edge id="-1149580108" sampledSeconds="3461.69" traveltime="441.88" overlapTraveltime="340.43" density="691.78" laneDensity="691.78" occupancy="91.72" waitingTime="3436.00" timeLoss="3454.27" speed="0.01" speedRelative="0.00" departed="13" arrived="1" entered="21" left="31" laneChangedFrom="0" laneChangedTo="0" teleported="10"/>
        <edge id="-1149580109" sampledSeconds="1650.33" traveltime="199.34" overlapTraveltime="347.80" density="2292.13" laneDensity="2292.13" occupancy="26.97" waitingTime="1641.00" timeLoss="1646.97" speed="0.01" speedRelative="0.00" departed="2" arrived="1" entered="17" left="17" laneChangedFrom="0" laneChangedTo="0" teleported="3"/>
        <edge id="-1149580110" sampledSeconds="3027.51" traveltime="159.12" overlapTraveltime="255.09" density="4204.87" laneDensity="4204.87" occupancy="56.04" waitingTime="3001.00" timeLoss="3020.39" speed="0.01" speedRelative="0.00" departed="9" arrived="0" entered="24" left="33" laneChangedFrom="0" laneChangedTo="0" teleported="4"/>
        <edge id="-1149580308" sampledSeconds="1872.53" traveltime="164.60" overlapTraveltime="307.51" density="490.70" laneDensity="490.70" occupancy="47.93" waitingTime="1858.00" timeLoss="1869.66" speed="0.01" speedRelative="0.00" departed="4" arrived="3" entered="13" left="14" laneChangedFrom="0" laneChangedTo="0" teleported="5"/>
        <edge id="-1149581388" sampledSeconds="31385.01" traveltime="207.65" overlapTraveltime="207.28" density="63.13" laneDensity="63.13" occupancy="26.27" waitingTime="27129.00" timeLoss="29878.85" speed="0.69" speedRelative="0.03" departed="104" arrived="0" entered="113" left="195" laneChangedFrom="0" laneChangedTo="0" teleported="3"/>
        <edge id="-1149582046#3" sampledSeconds="314.81" traveltime="77.90" overlapTraveltime="78.84" density="0.04" laneDensity="0.02" occupancy="0.02" waitingTime="0.00" timeLoss="25.25" speed="25.73" speedRelative="0.93" departed="0" arrived="3" entered="4" left="0" laneChangedFrom="4" laneChangedTo="4"/>
        <edge id="-1270367191#1" sampledSeconds="110423.13" traveltime="985.33" overlapTraveltime="992.72" density="121.37" laneDensity="121.37" occupancy="51.78" waitingTime="98681.00" timeLoss="108200.97" speed="0.26" speedRelative="0.01" departed="71" arrived="1" entered="93" left="123" laneChangedFrom="0" laneChangedTo="0" teleported="3"/>
        <edge id="-1270367191#2" sampledSeconds="3286.42" traveltime="29.46" overlapTraveltime="27.18" density="222.12" laneDensity="222.12" occupancy="47.56" waitingTime="3000.00" timeLoss="3197.33" speed="0.26" speedRelative="0.01" departed="27" arrived="2" entered="132" left="143" laneChangedFrom="0" laneChangedTo="0" teleported="4"/>
        <edge id="-1307054560#0" sampledSeconds="26543.26" traveltime="356.25" overlapTraveltime="363.34" density="262.30" laneDensity="262.30" occupancy="74.11" waitingTime="25526.43" timeLoss="26332.74" speed="0.09" speedRelative="0.00" departed="3" arrived="0" entered="109" left="104" laneChangedFrom="0" laneChangedTo="0" teleported="14"/>
        <edge id="-1307054560#1" sampledSeconds="29598.16" traveltime="347.18" overlapTraveltime="383.22" density="160.86" laneDensity="160.86" occupancy="69.36" waitingTime="27307.13" timeLoss="29238.72" speed="0.15" speedRelative="0.01" departed="2" arrived="0" entered="106" left="99" laneChangedFrom="0" laneChangedTo="0" teleported="7"/>
        <edge id="-1307054560#2" sampledSeconds="61158.00" traveltime="686.77" overlapTraveltime="726.18" density="161.42" laneDensity="161.42" occupancy="66.81" waitingTime="55340.48" timeLoss="60406.82" speed="0.15" speedRelative="0.01" departed="5" arrived="0" entered="114" left="100" laneChangedFrom="0" laneChangedTo="0"/>
        <edge id="-1307054560#3" sampledSeconds="55552.75" traveltime="591.92" overlapTraveltime="627.13" density="144.73" laneDensity="144.73" occupancy="69.76" waitingTime="49793.54" timeLoss="54826.14" speed="0.18" speedRelative="0.01" departed="5" arrived="1" entered="121" left="108" laneChangedFrom="0" laneChangedTo="0"/>
        <edge id="-1307054560#4" sampledSeconds="75525.06" traveltime="695.79" overlapTraveltime="718.20" density="178.55" laneDensity="178.55" occupancy="63.99" waitingTime="68593.04" timeLoss="74651.55" speed="0.17" speedRelative="0.01" departed="8" arrived="2" entered="138" left="120" laneChangedFrom="0" laneChangedTo="0" teleported="3"/>
        <edge id="-1307054560#5" sampledSeconds="75267.67" traveltime="639.39" overlapTraveltime="657.89" density="168.66" laneDensity="168.66" occupancy="64.08" waitingTime="68341.48" timeLoss="74329.65" speed="0.19" speedRelative="0.01" departed="22" arrived="2" entered="144" left="132" laneChangedFrom="0" laneChangedTo="0" teleported="1"/>
        <edge id="-152227686#0" sampledSeconds="40970.96" traveltime="465.84" overlapTraveltime="473.52" density="204.84" laneDensity="204.84" occupancy="71.57" waitingTime="38737.73" timeLoss="40467.79" speed="0.12" speedRelative="0.01" departed="19" arrived="2" entered="111" left="115" laneChangedFrom="0" laneChangedTo="0" teleported="7"/>
        <edge id="-152227686#1" sampledSeconds="15281.12" traveltime="192.44" overlapTraveltime="194.10" density="213.73" laneDensity="213.73" occupancy="68.59" waitingTime="14614.00" timeLoss="15088.92" speed="0.12" speedRelative="0.01" departed="25" arrived="0" entered="101" left="119" laneChangedFrom="0" laneChangedTo="0" teleported="4"/>
        <edge id="-152227686#2" sampledSeconds="3843.38" traveltime="112.19" overlapTraveltime="98.14" density="266.24" laneDensity="266.24" occupancy="63.38" waitingTime="3710.00" timeLoss="3811.64" speed="0.08" speedRelative="0.01" departed="25" arrived="1" entered="28" left="51" laneChangedFrom="0" laneChangedTo="0" teleported="5"/>
        <edge id="-152227686#6" sampledSeconds="105983.41" traveltime="2862.14" overlapTraveltime="2892.03" density="101.89" laneDensity="101.89" occupancy="48.80" waitingTime="99991.00" timeLoss="104849.93" speed="0.10" speedRelative="0.01" departed="70" arrived="1" entered="9" left="35" laneChangedFrom="0" laneChangedTo="0" teleported="5"/>
        <edge id="-152227697#2" sampledSeconds="27.84" traveltime="13.73" overlapTraveltime="14.18" density="0.04" laneDensity="0.04" occupancy="0.03" waitingTime="0.00" timeLoss="7.98" speed="16.15" speedRelative="0.73" departed="0" arrived="2" entered="2" left="0" laneChangedFrom="0" laneChangedTo="0"/>
        <edge id="-152227697#3" sampledSeconds="3605.61" traveltime="71.23" overlapTraveltime="73.54" density="290.31" laneDensity="290.31" occupancy="82.69" waitingTime="3427.00" timeLoss="3545.14" speed="0.11" speedRelative="0.01" departed="38" arrived="3" entered="58" left="91" laneChangedFrom="0" laneChangedTo="0" teleported="8"/>
        <edge id="-155315678#4" sampledSeconds="148418.47" traveltime="1897.63" overlapTraveltime="1903.25" density="63.67" laneDensity="63.67" occupancy="29.33" waitingTime="134700.00" timeLoss="144710.21" speed="0.34" speedRelative="0.02" departed="124" arrived="1" entered="60" left="66" laneChangedFrom="0" laneChangedTo="0" teleported="6"/>
        <edge id="-155315678#5" sampledSeconds="134142.53" traveltime="2453.54" overlapTraveltime="2465.91" density="138.18" laneDensity="138.18" occupancy="55.14" waitingTime="123765.90" timeLoss="133240.10" speed="0.11" speedRelative="0.00" departed="43" arrived="1" entered="68" left="51" laneChangedFrom="0" laneChangedTo="0" teleported="6"/>
        <edge id="-155315680#1" sampledSeconds="63375.26" traveltime="1563.69" overlapTraveltime="1632.22" density="176.73" laneDensity="176.73" occupancy="63.99" waitingTime="59764.55" timeLoss="62950.30" speed="0.06" speedRelative="0.00" departed="44" arrived="0" entered="18" left="39" laneChangedFrom="0" laneChangedTo="0" teleported="4"/>
        <edge id="-155315682" sampledSeconds="50322.83" traveltime="1097.67" overlapTraveltime="1116.33" density="136.52" laneDensity="136.52" occupancy="54.48" waitingTime="47900.00" timeLoss="49863.76" speed="0.10" speedRelative="0.01" departed="52" arrived="1" entered="16" left="49" laneChangedFrom="0" laneChangedTo="0" teleported="8"/>
        <edge id="-155315683" sampledSeconds="102711.10" traveltime="2561.50" overlapTraveltime="2586.30" density="141.28" laneDensity="141.28" occupancy="56.13" waitingTime="96853.00" timeLoss="102016.84" speed="0.08" speedRelative="0.01" departed="43" arrived="3" entered="32" left="31" laneChangedFrom="0" laneChangedTo="0" teleported="8"/>
        <edge id="-155315688#0" sampledSeconds="37782.63" traveltime="1031.67" overlapTraveltime="1063.07" density="157.80" laneDensity="157.80" occupancy="65.31" waitingTime="36443.56" timeLoss="37477.89" speed="0.07" speedRelative="0.00" departed="30" arrived="0" entered="24" left="40" laneChangedFrom="0" laneChangedTo="0" teleported="10"/>
        <edge id="-155315688#1" sampledSeconds="53116.28" traveltime="1042.76" overlapTraveltime="1066.94" density="159.92" laneDensity="159.92" occupancy="60.24" waitingTime="50176.00" timeLoss="52607.44" speed="0.09" speedRelative="0.01" departed="48" arrived="1" entered="36" left="64" laneChangedFrom="0" laneChangedTo="0" teleported="8"/>
        <edge id="-155315693#2" sampledSeconds="166896.32" traveltime="1060.28" overlapTraveltime="1068.97" density="169.05" laneDensity="169.05" occupancy="68.75" waitingTime="139777.24" timeLoss="162466.14" speed="0.26" speedRelative="0.02" departed="11" arrived="0" entered="222" left="184" laneChangedFrom="0" laneChangedTo="0" teleported="6"/>
        <edge id="-155315693#8" sampledSeconds="54374.96" traveltime="1151.17" overlapTraveltime="1154.71" density="36.84" laneDensity="36.84" occupancy="17.55" waitingTime="49982.00" timeLoss="52632.58" speed="0.36" speedRelative="0.03" departed="101" arrived="0" entered="0" left="55" laneChangedFrom="0" laneChangedTo="0" teleported="8"/>
        <edge id="-155315694#2" sampledSeconds="149162.14" traveltime="2719.15" overlapTraveltime="2741.87" density="186.03" laneDensity="186.03" occupancy="69.88" waitingTime="137752.00" timeLoss="148015.07" speed="0.08" speedRelative="0.01" departed="25" arrived="0" entered="53" left="33" laneChangedFrom="0" laneChangedTo="0" teleported="8"/>
        <edge id="-155315694#3" sampledSeconds="25944.95" traveltime="346.29" overlapTraveltime="358.31" density="175.78" laneDensity="175.78" occupancy="58.31" waitingTime="24778.00" timeLoss="25607.31" speed="0.12" speedRelative="0.01" departed="51" arrived="2" entered="47" left="85" laneChangedFrom="0" laneChangedTo="0" teleported="3"/>
        <edge id="-155315695#0" sampledSeconds="69460.80" traveltime="807.52" overlapTraveltime="815.80" density="186.35" laneDensity="186.35" occupancy="65.96" waitingTime="65287.00" timeLoss="68540.83" speed="0.13" speedRelative="0.01" departed="29" arrived="1" entered="92" left="92" laneChangedFrom="0" laneChangedTo="0" teleported="11"/>
        <edge id="-155315695#1" sampledSeconds="30463.45" traveltime="498.03" overlapTraveltime="498.47" density="205.84" laneDensity="205.84" occupancy="63.68" waitingTime="29232.87" timeLoss="30197.67" speed="0.09" speedRelative="0.01" departed="28" arrived="0" entered="48" left="67" laneChangedFrom="0" laneChangedTo="0" teleported="4"/>
        <edge id="-155315695#3" sampledSeconds="85373.06" traveltime="1660.65" overlapTraveltime="1699.77" density="97.01" laneDensity="97.01" occupancy="44.67" waitingTime="79192.34" timeLoss="84203.11" speed="0.15" speedRelative="0.01" departed="71" arrived="2" entered="18" left="49" laneChangedFrom="0" laneChangedTo="0" teleported="4"/>
        <edge id="-155315695#4" sampledSeconds="42712.49" traveltime="802.58" overlapTraveltime="824.10" density="232.37" laneDensity="232.37" occupancy="62.34" waitingTime="40693.00" timeLoss="42399.99" speed="0.07" speedRelative="0.00" departed="39" arrived="2" entered="36" left="58" laneChangedFrom="0" laneChangedTo="0" teleported="5"/>
        <edge id="-155315711" sampledSeconds="55485.90" traveltime="1168.77" overlapTraveltime="1199.27" density="191.77" laneDensity="191.77" occupancy="68.88" waitingTime="53042.00" timeLoss="55003.85" speed="0.07" speedRelative="0.01" departed="15" arrived="0" entered="51" left="45" laneChangedFrom="0" laneChangedTo="0" teleported="9"/>
        <edge id="-155315719#0" sampledSeconds="240629.09" traveltime="4334.75" overlapTraveltime="4364.02" density="142.55" laneDensity="142.55" occupancy="63.18" waitingTime="226527.00" timeLoss="239056.28" speed="0.11" speedRelative="0.00" departed="37" arrived="0" entered="90" left="36" laneChangedFrom="0" laneChangedTo="0" teleported="11"/>
        <edge id="-155315719#1" sampledSeconds="69181.00" traveltime="423.48" overlapTraveltime="426.16" density="120.38" laneDensity="120.38" occupancy="53.42" waitingTime="62681.79" timeLoss="67302.23" speed="0.39" speedRelative="0.02" departed="35" arrived="3" entered="184" left="187" laneChangedFrom="0" laneChangedTo="0" teleported="5"/>
        <edge id="-155315719#15" sampledSeconds="58237.52" traveltime="1139.55" overlapTraveltime="1140.51" density="18.39" laneDensity="18.39" occupancy="8.19" waitingTime="52533.00" timeLoss="55946.79" speed="0.78" speedRelative="0.03" departed="113" arrived="0" entered="0" left="61" laneChangedFrom="0" laneChangedTo="0" teleported="6"/>
        <edge id="-155315719#2" sampledSeconds="50400.65" traveltime="291.65" overlapTraveltime="304.53" density="129.07" laneDensity="129.07" occupancy="53.34" waitingTime="45073.61" timeLoss="49029.16" speed="0.37" speedRelative="0.02" departed="41" arrived="0" entered="183" left="194" laneChangedFrom="0" laneChangedTo="0"/>
        <edge id="-155315719#8" sampledSeconds="164781.80" traveltime="667.62" overlapTraveltime="670.86" density="124.26" laneDensity="124.26" occupancy="51.55" waitingTime="140989.00" timeLoss="159088.50" speed="0.56" speedRelative="0.02" departed="54" arrived="4" entered="263" left="238" laneChangedFrom="0" laneChangedTo="0" teleported="7"/>
        <edge id="-155775198#0" sampledSeconds="320355.43" traveltime="1261.89" overlapTraveltime="1268.00" density="235.33" laneDensity="235.33" occupancy="97.84" waitingTime="283030.00" timeLoss="314788.55" speed="0.30" speedRelative="0.01" departed="38" arrived="0" entered="375" left="280" laneChangedFrom="0" laneChangedTo="0" teleported="11"/>
        <edge id="-155775198#3" sampledSeconds="396491.28" traveltime="1834.26" overlapTraveltime="1843.76" density="280.51" laneDensity="280.51" occupancy="114.77" waitingTime="340956.66" timeLoss="390811.67" speed="0.22" speedRelative="0.01" departed="5" arrived="2" entered="322" left="186" laneChangedFrom="0" laneChangedTo="0" teleported="6"/>
        <edge id="-155775198#4" sampledSeconds="25544.99" traveltime="165.31" overlapTraveltime="171.80" density="224.27" laneDensity="224.27" occupancy="85.77" waitingTime="23538.29" timeLoss="25193.15" speed="0.21" speedRelative="0.01" departed="26" arrived="0" entered="156" left="173" laneChangedFrom="0" laneChangedTo="0" teleported="4"/>
        <edge id="-155775198#5" sampledSeconds="9555.65" traveltime="61.13" overlapTraveltime="74.60" density="247.61" laneDensity="247.61" occupancy="85.94" waitingTime="8750.81" timeLoss="9426.91" speed="0.21" speedRelative="0.01" departed="18" arrived="2" entered="157" left="165" laneChangedFrom="0" laneChangedTo="0" teleported="5"/>
        <edge id="-155775198#6" sampledSeconds="160922.20" traveltime="1122.90" overlapTraveltime="1133.53" density="225.60" laneDensity="225.60" occupancy="100.81" waitingTime="148610.53" timeLoss="158793.11" speed="0.18" speedRelative="0.01" departed="9" arrived="3" entered="167" left="120" laneChangedFrom="0" laneChangedTo="0" teleported="8"/>
        <edge id="-155775200#1" sampledSeconds="1142685.81" traveltime="4058.14" overlapTraveltime="4075.48" density="433.50" laneDensity="433.50" occupancy="173.60" waitingTime="1060396.00" timeLoss="1131479.07" speed="0.18" speedRelative="0.01" departed="24" arrived="1" entered="680" left="263" laneChangedFrom="0" laneChangedTo="0" teleported="22"/>
        <edge id="-163652291" sampledSeconds="29303.38" traveltime="510.24" overlapTraveltime="529.85" density="226.29" laneDensity="226.29" occupancy="72.27" waitingTime="27857.00" timeLoss="29108.94" speed="0.07" speedRelative="0.00" departed="33" arrived="2" entered="44" left="63" laneChangedFrom="0" laneChangedTo="0" teleported="11"/>
        <edge id="-205021436#0" sampledSeconds="301311.82" traveltime="2358.49" overlapTraveltime="2374.84" density="149.48" laneDensity="149.48" occupancy="68.92" waitingTime="279062.83" timeLoss="297373.92" speed="0.24" speedRelative="0.01" departed="16" arrived="0" entered="227" left="149" laneChangedFrom="0" laneChangedTo="0" teleported="9"/>
        <edge id="-205021436#1" sampledSeconds="57605.63" traveltime="360.78" overlapTraveltime="368.71" density="155.60" laneDensity="155.60" occupancy="66.80" waitingTime="52432.65" timeLoss="56758.05" speed="0.29" speedRelative="0.01" departed="8" arrived="0" entered="189" left="177" laneChangedFrom="0" laneChangedTo="0" teleported="6"/>
        <edge id="-271412010" sampledSeconds="113607.61" traveltime="2718.73" overlapTraveltime="2732.78" density="97.63" laneDensity="97.63" occupancy="43.92" waitingTime="106263.00" timeLoss="112427.72" speed="0.12" speedRelative="0.01" departed="86" arrived="1" entered="8" left="40" laneChangedFrom="0" laneChangedTo="0" teleported="6"/>
        <edge id="-31905181#0" sampledSeconds="88000.93" traveltime="848.76" overlapTraveltime="851.96" density="160.65" laneDensity="160.65" occupancy="68.47" waitingTime="81780.38" timeLoss="86574.23" speed="0.18" speedRelative="0.01" departed="17" arrived="0" entered="126" left="116" laneChangedFrom="0" laneChangedTo="0" teleported="8"/>
        <edge id="-31905181#3" sampledSeconds="207807.19" traveltime="1839.42" overlapTraveltime="1858.92" density="171.85" laneDensity="171.85" occupancy="64.06" waitingTime="187094.00" timeLoss="204365.10" speed="0.18" speedRelative="0.01" departed="28" arrived="1" entered="151" left="102" laneChangedFrom="0" laneChangedTo="0" teleported="1"/>
        <edge id="-31905190#0" sampledSeconds="52966.58" traveltime="1155.89" overlapTraveltime="1163.21" density="158.60" laneDensity="158.60" occupancy="62.62" waitingTime="50631.00" timeLoss="52504.06" speed="0.08" speedRelative="0.01" departed="36" arrived="2" entered="38" left="50" laneChangedFrom="0" laneChangedTo="0" teleported="5"/>
        <edge id="-31905190#3" sampledSeconds="114392.49" traveltime="1595.99" overlapTraveltime="1605.47" density="178.40" laneDensity="178.40" occupancy="65.81" waitingTime="106880.85" timeLoss="113043.28" speed="0.11" speedRelative="0.01" departed="24" arrived="5" entered="94" left="77" laneChangedFrom="0" laneChangedTo="0" teleported="4"/>
        <edge id="-31905195#1" sampledSeconds="46390.78" traveltime="1161.88" overlapTraveltime="1191.12" density="165.00" laneDensity="165.00" occupancy="64.44" waitingTime="44758.00" timeLoss="45993.47" speed="0.07" speedRelative="0.00" departed="35" arrived="3" entered="29" left="43" laneChangedFrom="0" laneChangedTo="0" teleported="9"/>
        <edge id="-31905195#2" sampledSeconds="56935.31" traveltime="1348.11" overlapTraveltime="1376.77" density="138.20" laneDensity="138.20" occupancy="61.82" waitingTime="54651.00" timeLoss="56408.24" speed="0.09" speedRelative="0.01" departed="47" arrived="2" entered="10" left="36" laneChangedFrom="0" laneChangedTo="0" teleported="11"/>
        <edge id="-31905201#2" sampledSeconds="166010.26" traveltime="2386.92" overlapTraveltime="2424.24" density="121.65" laneDensity="121.65" occupancy="62.55" waitingTime="153977.86" timeLoss="164498.66" speed="0.16" speedRelative="0.01" departed="43" arrived="2" entered="74" left="58" laneChangedFrom="0" laneChangedTo="0" teleported="4"/>