<?xml version="1.0" encoding="UTF-8"?>

<<<<<<< HEAD
<!-- generated on 2025-08-19 17:50:30 by Eclipse SUMO GUI Version 1.24.0
=======
<!-- generated on 2025-08-20 14:15:57 by Eclipse SUMO GUI Version 1.23.1
>>>>>>> sondev
<sumoConfiguration xmlns:xsi="http://www.w3.org/2001/XMLSchema-instance" xsi:noNamespaceSchemaLocation="http://sumo.dlr.de/xsd/sumoConfiguration.xsd">

    <input>
        <net-file value="PhuQuoc/phuquoc.net.xml"/>
        <route-files value="PhuQuoc/phuquoc.rou.xml,PhuQuoc/phuquoc-demo.rou.xml"/>
        <additional-files value="PhuQuoc/detector.add.xml"/>
    </input>

    <output>
<<<<<<< HEAD
        <tripinfo-output value="G:\workspace\github\PC_Algo\output\tripinfo.xml"/>
        <vehroute-output value="PhuQuoc/../../output/vehroutes_baseline.xml"/>
        <edgedata-output value="G:\workspace\github\PC_Algo\output\edgedata.xml"/>
=======
        <tripinfo-output value="D:\He_thong_giao_thong_thich_ung\Algorithms_code\PC_Algorithms\output\tripinfo.xml"/>
        <vehroute-output value="D:\He_thong_giao_thong_thich_ung\Algorithms_code\PC_Algorithms\output\vehroutes.xml"/>
        <edgedata-output value="PhuQuoc/../../output/edgedata_baseline.xml"/>
>>>>>>> sondev
    </output>

    <time>
        <step-length value="1"/>
    </time>

    <processing>
        <lateral-resolution value="0.5"/>
        <ignore-route-errors value="true"/>
        <time-to-teleport value="50"/>
        <tls.actuated.jam-threshold value="30"/>
    </processing>

    <routing>
        <device.rerouting.adaptation-steps value="18"/>
        <device.rerouting.adaptation-interval value="10"/>
    </routing>

    <report>
        <verbose value="true"/>
        <duration-log.statistics value="true"/>
        <no-step-log value="true"/>
    </report>

    <traci_server>
        <remote-port value="8814"/>
    </traci_server>

    <gui_only>
        <gui-settings-file value="PhuQuoc/phuquoc.view.xml"/>
        <quit-on-end value="true"/>
        <start value="true"/>
        <delay value="0"/>
    </gui_only>

</sumoConfiguration>
-->

<meandata xmlns:xsi="http://www.w3.org/2001/XMLSchema-instance" xsi:noNamespaceSchemaLocation="http://sumo.dlr.de/xsd/meandata_file.xsd">
<<<<<<< HEAD
    <interval begin="0.00" end="1860.00" id="DEFAULT_EDGEDATA">
        <edge id="-100954129#0" sampledSeconds="5758.63" traveltime="25.45" overlapTraveltime="26.64" density="52.80" laneDensity="52.80" occupancy="21.08" waitingTime="3129.00" timeLoss="4560.14" speed="2.36" speedRelative="0.17" departed="17" arrived="7" entered="230" left="228" laneChangedFrom="0" laneChangedTo="0" teleported="37"/>
        <edge id="-100954129#1" sampledSeconds="2261.24" traveltime="10.38" overlapTraveltime="11.26" density="22.92" laneDensity="22.92" occupancy="9.80" waitingTime="498.00" timeLoss="1250.13" speed="5.12" speedRelative="0.37" departed="16" arrived="4" entered="202" left="211" laneChangedFrom="0" laneChangedTo="0" teleported="8"/>
        <edge id="-100954129#3" sampledSeconds="6492.58" traveltime="31.17" overlapTraveltime="32.12" density="51.23" laneDensity="51.23" occupancy="22.00" waitingTime="3392.00" timeLoss="5290.19" speed="2.26" speedRelative="0.16" departed="7" arrived="8" entered="225" left="217" laneChangedFrom="0" laneChangedTo="0" teleported="47"/>
        <edge id="-100954129#4" sampledSeconds="2593.81" traveltime="12.28" overlapTraveltime="13.04" density="26.11" laneDensity="26.11" occupancy="11.79" waitingTime="918.00" timeLoss="1642.03" speed="4.47" speedRelative="0.32" departed="8" arrived="10" entered="209" left="202" laneChangedFrom="0" laneChangedTo="0" teleported="5"/>
        <edge id="-100954129#5" sampledSeconds="5029.23" traveltime="25.78" overlapTraveltime="26.31" density="16.98" laneDensity="16.98" occupancy="7.05" waitingTime="1106.00" timeLoss="2486.35" speed="6.22" speedRelative="0.45" departed="14" arrived="14" entered="194" left="189" laneChangedFrom="0" laneChangedTo="0" teleported="4"/>
        <edge id="-100954163#8" sampledSeconds="2.69" traveltime="2.55" overlapTraveltime="2.69" density="0.04" laneDensity="0.04" occupancy="0.01" waitingTime="0.00" timeLoss="0.16" speed="15.68" speedRelative="1.13" departed="0" arrived="1" entered="1" left="0" laneChangedFrom="0" laneChangedTo="0"/>
        <edge id="-100954163#9" sampledSeconds="305.23" traveltime="17.17" overlapTraveltime="18.40" density="0.85" laneDensity="0.85" occupancy="0.32" waitingTime="0.00" timeLoss="43.40" speed="10.73" speedRelative="0.77" departed="19" arrived="2" entered="8" left="24" laneChangedFrom="0" laneChangedTo="0"/>
        <edge id="-100954245#13" sampledSeconds="5835.43" traveltime="154.06" overlapTraveltime="155.59" density="2.16" laneDensity="2.16" occupancy="1.01" waitingTime="666.00" timeLoss="2328.57" speed="9.38" speedRelative="0.42" departed="12" arrived="3" entered="31" left="38" laneChangedFrom="0" laneChangedTo="0" teleported="2"/>
        <edge id="-1056899464#0" sampledSeconds="6640.29" traveltime="33.94" overlapTraveltime="37.16" density="45.04" laneDensity="45.04" occupancy="20.94" waitingTime="3074.82" timeLoss="5429.05" speed="2.27" speedRelative="0.16" departed="13" arrived="3" entered="203" left="200" laneChangedFrom="0" laneChangedTo="0" teleported="17"/>
        <edge id="-1056899464#1" sampledSeconds="4500.14" traveltime="21.93" overlapTraveltime="22.75" density="26.95" laneDensity="26.95" occupancy="13.88" waitingTime="2061.00" timeLoss="3036.95" speed="4.18" speedRelative="0.30" departed="16" arrived="4" entered="212" left="210" laneChangedFrom="0" laneChangedTo="0" teleported="17"/>
        <edge id="-1117528626#0" sampledSeconds="186.29" traveltime="46.26" overlapTraveltime="53.35" density="0.38" laneDensity="0.38" occupancy="0.16" waitingTime="88.00" timeLoss="126.43" speed="4.99" speedRelative="0.22" departed="9" arrived="0" entered="0" left="9" laneChangedFrom="0" laneChangedTo="0"/>
        <edge id="-1117528626#1" sampledSeconds="1317.87" traveltime="52.80" overlapTraveltime="53.71" density="1.59" laneDensity="1.59" occupancy="0.68" waitingTime="503.00" timeLoss="663.49" speed="8.37" speedRelative="0.38" departed="13" arrived="6" entered="16" left="22" laneChangedFrom="0" laneChangedTo="0" teleported="8"/>
        <edge id="-1117528627#1" sampledSeconds="89.22" traveltime="17.76" overlapTraveltime="18.04" density="0.25" laneDensity="0.25" occupancy="0.08" waitingTime="0.00" timeLoss="7.35" speed="10.91" speedRelative="0.39" departed="0" arrived="5" entered="5" left="0" laneChangedFrom="0" laneChangedTo="0"/>
        <edge id="-1117528627#2" sampledSeconds="1180.38" traveltime="38.29" overlapTraveltime="40.95" density="1.43" laneDensity="1.43" occupancy="0.58" waitingTime="264.00" timeLoss="409.84" speed="10.95" speedRelative="0.39" departed="10" arrived="8" entered="22" left="23" laneChangedFrom="0" laneChangedTo="0"/>
        <edge id="-1135316108" sampledSeconds="6958.21" traveltime="67.87" overlapTraveltime="68.11" density="3.59" laneDensity="3.59" occupancy="1.43" waitingTime="0.00" timeLoss="489.33" speed="15.38" speedRelative="0.69" departed="15" arrived="9" entered="99" left="97" laneChangedFrom="0" laneChangedTo="0"/>
        <edge id="-1135316109" sampledSeconds="2578.73" traveltime="22.84" overlapTraveltime="23.89" density="6.52" laneDensity="6.52" occupancy="2.86" waitingTime="406.00" timeLoss="996.58" speed="9.09" speedRelative="0.41" departed="14" arrived="7" entered="106" left="105" laneChangedFrom="0" laneChangedTo="0" teleported="5"/>
        <edge id="-1149576119" sampledSeconds="847.74" traveltime="33.36" overlapTraveltime="50.75" density="562.69" laneDensity="562.69" occupancy="40.55" waitingTime="800.00" timeLoss="831.68" speed="0.12" speedRelative="0.01" departed="13" arrived="6" entered="32" left="39" laneChangedFrom="0" laneChangedTo="0" teleported="17"/>
        <edge id="-1149578009" sampledSeconds="455.88" traveltime="30.56" overlapTraveltime="45.40" density="247.57" laneDensity="247.57" occupancy="22.24" waitingTime="432.00" timeLoss="449.04" speed="0.12" speedRelative="0.01" departed="9" arrived="8" entered="17" left="18" laneChangedFrom="0" laneChangedTo="0" teleported="10"/>
        <edge id="-1149578943" sampledSeconds="986.37" traveltime="29.82" overlapTraveltime="45.17" density="236.74" laneDensity="236.74" occupancy="45.63" waitingTime="912.00" timeLoss="970.01" speed="0.12" speedRelative="0.01" departed="13" arrived="4" entered="32" left="40" laneChangedFrom="0" laneChangedTo="0" teleported="12"/>
        <edge id="-1149578944" sampledSeconds="895.04" traveltime="36.85" overlapTraveltime="38.39" density="1458.20" laneDensity="1458.20" occupancy="35.09" waitingTime="851.00" timeLoss="881.71" speed="0.09" speedRelative="0.00" departed="15" arrived="2" entered="34" left="46" laneChangedFrom="0" laneChangedTo="0" teleported="13"/>
        <edge id="-1149578945" sampledSeconds="564.71" traveltime="35.21" overlapTraveltime="35.68" density="410.28" laneDensity="410.28" occupancy="29.02" waitingTime="533.00" timeLoss="552.95" speed="0.14" speedRelative="0.01" departed="2" arrived="6" entered="42" left="38" laneChangedFrom="0" laneChangedTo="0" teleported="10"/>
        <edge id="-1149579534" sampledSeconds="497.48" traveltime="44.26" overlapTraveltime="36.03" density="1215.74" laneDensity="1215.74" occupancy="22.27" waitingTime="477.00" timeLoss="488.58" speed="0.12" speedRelative="0.01" departed="4" arrived="2" entered="24" left="25" laneChangedFrom="0" laneChangedTo="0" teleported="7"/>
        <edge id="-1149579535" sampledSeconds="942.22" traveltime="38.33" overlapTraveltime="58.13" density="533.23" laneDensity="533.23" occupancy="45.96" waitingTime="882.00" timeLoss="926.46" speed="0.10" speedRelative="0.00" departed="15" arrived="5" entered="39" left="49" laneChangedFrom="0" laneChangedTo="0" teleported="12"/>
        <edge id="-1149580108" sampledSeconds="750.30" traveltime="34.16" overlapTraveltime="47.12" density="290.21" laneDensity="290.21" occupancy="37.87" waitingTime="707.00" timeLoss="736.83" speed="0.13" speedRelative="0.01" departed="9" arrived="5" entered="45" left="49" laneChangedFrom="0" laneChangedTo="0" teleported="14"/>
        <edge id="-1149580109" sampledSeconds="707.40" traveltime="25.93" overlapTraveltime="38.75" density="1901.61" laneDensity="1901.61" occupancy="22.13" waitingTime="674.54" timeLoss="696.38" speed="0.11" speedRelative="0.00" departed="11" arrived="10" entered="32" left="33" laneChangedFrom="0" laneChangedTo="0" teleported="9"/>
        <edge id="-1149580110" sampledSeconds="500.04" traveltime="25.63" overlapTraveltime="38.00" density="1344.20" laneDensity="1344.20" occupancy="17.18" waitingTime="465.98" timeLoss="486.39" speed="0.14" speedRelative="0.01" departed="13" arrived="4" entered="24" left="33" laneChangedFrom="0" laneChangedTo="0" teleported="8"/>
        <edge id="-1149580308" sampledSeconds="597.73" traveltime="25.64" overlapTraveltime="39.79" density="303.17" laneDensity="303.17" occupancy="29.12" waitingTime="549.00" timeLoss="586.56" speed="0.15" speedRelative="0.01" departed="2" arrived="6" entered="28" left="24" laneChangedFrom="0" laneChangedTo="0" teleported="7"/>
        <edge id="-1149581388" sampledSeconds="2701.46" traveltime="12.88" overlapTraveltime="13.31" density="10.52" laneDensity="10.52" occupancy="4.03" waitingTime="0.00" timeLoss="780.16" speed="10.68" speedRelative="0.48" departed="9" arrived="1" entered="237" left="239" laneChangedFrom="0" laneChangedTo="0"/>
        <edge id="-1149582046#3" sampledSeconds="2675.86" traveltime="199.39" overlapTraveltime="199.59" density="0.71" laneDensity="0.36" occupancy="0.07" waitingTime="0.00" timeLoss="153.26" speed="10.13" speedRelative="0.36" departed="0" arrived="13" entered="14" left="0" laneChangedFrom="3" laneChangedTo="4"/>
        <edge id="-1270367191#1" sampledSeconds="3939.80" traveltime="26.68" overlapTraveltime="27.65" density="8.38" laneDensity="8.38" occupancy="3.36" waitingTime="141.00" timeLoss="1482.04" speed="9.29" speedRelative="0.33" departed="10" arrived="2" entered="142" left="147" laneChangedFrom="0" laneChangedTo="0" teleported="3"/>
        <edge id="-1270367191#2" sampledSeconds="1655.68" traveltime="4.03" overlapTraveltime="11.99" density="216.58" laneDensity="216.58" occupancy="51.15" waitingTime="1296.54" timeLoss="1532.39" speed="0.76" speedRelative="0.03" departed="24" arrived="4" entered="218" left="236" laneChangedFrom="0" laneChangedTo="0" teleported="6"/>
        <edge id="-1307054560#0" sampledSeconds="7748.67" traveltime="48.09" overlapTraveltime="52.48" density="148.20" laneDensity="148.20" occupancy="77.72" waitingTime="5882.00" timeLoss="7356.20" speed="0.65" speedRelative="0.02" departed="12" arrived="2" entered="230" left="240" laneChangedFrom="0" laneChangedTo="0" teleported="45"/>
        <edge id="-1307054560#1" sampledSeconds="9615.63" traveltime="45.10" overlapTraveltime="52.04" density="101.15" laneDensity="101.15" occupancy="51.75" waitingTime="6085.72" timeLoss="8921.04" speed="1.10" speedRelative="0.04" departed="16" arrived="1" entered="221" left="236" laneChangedFrom="0" laneChangedTo="0" teleported="47"/>
        <edge id="-1307054560#2" sampledSeconds="8869.32" traveltime="39.66" overlapTraveltime="43.40" density="45.31" laneDensity="45.31" occupancy="25.45" waitingTime="3888.45" timeLoss="7380.54" speed="2.56" speedRelative="0.09" departed="10" arrived="2" entered="216" left="224" laneChangedFrom="0" laneChangedTo="0" teleported="29"/>
        <edge id="-1307054560#3" sampledSeconds="2187.57" traveltime="9.13" overlapTraveltime="9.88" density="11.03" laneDensity="11.03" occupancy="4.51" waitingTime="64.00" timeLoss="569.75" speed="11.24" speedRelative="0.40" departed="12" arrived="1" entered="219" left="224" laneChangedFrom="0" laneChangedTo="0"/>
        <edge id="-1307054560#4" sampledSeconds="2059.30" traveltime="8.87" overlapTraveltime="9.19" density="9.42" laneDensity="9.42" occupancy="3.54" waitingTime="1.00" timeLoss="248.37" speed="13.22" speedRelative="0.48" departed="15" arrived="4" entered="216" left="226" laneChangedFrom="0" laneChangedTo="0"/>
        <edge id="-1307054560#5" sampledSeconds="2516.07" traveltime="10.94" overlapTraveltime="11.28" density="10.91" laneDensity="10.91" occupancy="4.22" waitingTime="51.00" timeLoss="569.04" speed="11.35" speedRelative="0.41" departed="17" arrived="3" entered="215" left="228" laneChangedFrom="0" laneChangedTo="0" teleported="1"/>
        <edge id="-152227686#0" sampledSeconds="1928.00" traveltime="10.31" overlapTraveltime="11.00" density="18.66" laneDensity="18.66" occupancy="9.68" waitingTime="740.00" timeLoss="1088.07" speed="5.55" speedRelative="0.40" departed="17" arrived="8" entered="176" left="177" laneChangedFrom="0" laneChangedTo="0" teleported="11"/>
        <edge id="-152227686#1" sampledSeconds="658.05" traveltime="3.41" overlapTraveltime="4.00" density="17.81" laneDensity="17.81" occupancy="7.12" waitingTime="154.00" timeLoss="332.10" speed="6.21" speedRelative="0.45" departed="16" arrived="10" entered="163" left="168" laneChangedFrom="0" laneChangedTo="0" teleported="3"/>
        <edge id="-152227686#2" sampledSeconds="46.84" traveltime="0.62" overlapTraveltime="1.90" density="6.28" laneDensity="6.28" occupancy="1.49" waitingTime="7.00" timeLoss="23.63" speed="5.06" speedRelative="0.36" departed="15" arrived="6" entered="16" left="25" laneChangedFrom="0" laneChangedTo="0"/>
        <edge id="-152227686#6" sampledSeconds="508.99" traveltime="24.79" overlapTraveltime="25.17" density="0.95" laneDensity="0.95" occupancy="0.41" waitingTime="0.00" timeLoss="34.40" speed="11.65" speedRelative="0.84" departed="11" arrived="10" entered="14" left="15" laneChangedFrom="0" laneChangedTo="0"/>
        <edge id="-152227697#2" sampledSeconds="53.09" traveltime="13.07" overlapTraveltime="13.27" density="0.13" laneDensity="0.13" occupancy="0.05" waitingTime="0.00" timeLoss="7.26" speed="16.92" speedRelative="0.76" departed="0" arrived="4" entered="4" left="0" laneChangedFrom="0" laneChangedTo="0"/>
        <edge id="-152227697#3" sampledSeconds="252.33" traveltime="0.87" overlapTraveltime="2.93" density="39.32" laneDensity="39.32" occupancy="9.08" waitingTime="61.00" timeLoss="142.51" speed="3.24" speedRelative="0.15" departed="19" arrived="6" entered="91" left="104" laneChangedFrom="0" laneChangedTo="0"/>
        <edge id="-155315678#4" sampledSeconds="15657.21" traveltime="104.57" overlapTraveltime="106.03" density="13.00" laneDensity="13.00" occupancy="6.50" waitingTime="6217.00" timeLoss="10101.13" speed="6.15" speedRelative="0.28" departed="12" arrived="12" entered="147" left="144" laneChangedFrom="0" laneChangedTo="0" teleported="42"/>
        <edge id="-155315678#5" sampledSeconds="5928.49" traveltime="41.69" overlapTraveltime="43.65" density="11.82" laneDensity="11.82" occupancy="4.76" waitingTime="2069.00" timeLoss="3468.49" speed="6.27" speedRelative="0.28" departed="18" arrived="9" entered="130" left="139" laneChangedFrom="0" laneChangedTo="0" teleported="28"/>
        <edge id="-155315680#1" sampledSeconds="908.05" traveltime="15.40" overlapTraveltime="18.28" density="4.90" laneDensity="4.90" occupancy="2.06" waitingTime="292.00" timeLoss="431.18" speed="5.71" speedRelative="0.41" departed="18" arrived="4" entered="41" left="55" laneChangedFrom="0" laneChangedTo="0" teleported="3"/>
        <edge id="-155315682" sampledSeconds="1529.19" traveltime="12.79" overlapTraveltime="13.64" density="8.03" laneDensity="8.03" occupancy="2.97" waitingTime="76.00" timeLoss="558.18" speed="7.80" speedRelative="0.56" departed="16" arrived="12" entered="110" left="106" laneChangedFrom="0" laneChangedTo="0" teleported="2"/>
        <edge id="-155315683" sampledSeconds="1260.06" traveltime="33.86" overlapTraveltime="34.91" density="3.35" laneDensity="3.35" occupancy="1.55" waitingTime="511.00" timeLoss="697.04" speed="5.92" speedRelative="0.43" departed="13" arrived="8" entered="30" left="35" laneChangedFrom="0" laneChangedTo="0" teleported="5"/>
        <edge id="-155315688#0" sampledSeconds="1059.79" traveltime="21.69" overlapTraveltime="23.13" density="8.57" laneDensity="8.57" occupancy="3.74" waitingTime="591.00" timeLoss="791.72" speed="3.07" speedRelative="0.22" departed="14" arrived="11" entered="39" left="42" laneChangedFrom="0" laneChangedTo="0" teleported="4"/>
        <edge id="-155315688#1" sampledSeconds="755.82" traveltime="10.78" overlapTraveltime="12.66" density="4.40" laneDensity="4.40" occupancy="1.62" waitingTime="144.00" timeLoss="302.33" speed="7.61" speedRelative="0.55" departed="11" arrived="5" entered="54" left="60" laneChangedFrom="0" laneChangedTo="0" teleported="2"/>
        <edge id="-155315693#2" sampledSeconds="4172.27" traveltime="49.13" overlapTraveltime="50.15" density="8.18" laneDensity="8.18" occupancy="3.71" waitingTime="1277.00" timeLoss="2129.39" speed="5.56" speedRelative="0.40" departed="14" arrived="7" entered="78" left="85" laneChangedFrom="0" laneChangedTo="0" teleported="10"/>
        <edge id="-155315693#8" sampledSeconds="480.06" traveltime="43.01" overlapTraveltime="48.78" density="0.63" laneDensity="0.63" occupancy="0.16" waitingTime="51.00" timeLoss="77.48" speed="8.47" speedRelative="0.61" departed="22" arrived="0" entered="0" left="22" laneChangedFrom="0" laneChangedTo="0"/>
        <edge id="-155315694#2" sampledSeconds="3626.84" traveltime="50.05" overlapTraveltime="52.04" density="8.75" laneDensity="8.75" occupancy="4.26" waitingTime="1739.00" timeLoss="2285.33" speed="4.38" speedRelative="0.32" departed="16" arrived="13" entered="62" left="65" laneChangedFrom="0" laneChangedTo="0" teleported="12"/>
        <edge id="-155315694#3" sampledSeconds="230.40" traveltime="4.74" overlapTraveltime="5.23" density="3.02" laneDensity="3.02" occupancy="1.06" waitingTime="0.00" timeLoss="68.71" speed="8.62" speedRelative="0.62" departed="17" arrived="10" entered="35" left="42" laneChangedFrom="0" laneChangedTo="0"/>
        <edge id="-155315695#0" sampledSeconds="9593.96" traveltime="79.47" overlapTraveltime="82.07" density="49.82" laneDensity="49.82" occupancy="27.16" waitingTime="6356.00" timeLoss="8540.70" speed="1.33" speedRelative="0.10" departed="20" arrived="1" entered="144" left="143" laneChangedFrom="0" laneChangedTo="0" teleported="52"/>
        <edge id="-155315695#1" sampledSeconds="1606.22" traveltime="16.34" overlapTraveltime="17.45" density="21.01" laneDensity="21.01" occupancy="10.97" waitingTime="741.00" timeLoss="1271.93" speed="2.70" speedRelative="0.19" departed="18" arrived="6" entered="101" left="105" laneChangedFrom="0" laneChangedTo="0" teleported="7"/>
        <edge id="-155315695#3" sampledSeconds="3665.30" traveltime="37.50" overlapTraveltime="39.69" density="8.06" laneDensity="8.06" occupancy="4.09" waitingTime="839.00" timeLoss="1913.56" speed="6.29" speedRelative="0.45" departed="14" arrived="6" entered="93" left="88" laneChangedFrom="0" laneChangedTo="0" teleported="12"/>
        <edge id="-155315695#4" sampledSeconds="565.48" traveltime="6.12" overlapTraveltime="6.61" density="5.95" laneDensity="5.95" occupancy="2.47" waitingTime="51.00" timeLoss="193.96" speed="8.44" speedRelative="0.61" departed="20" arrived="8" entered="74" left="86" laneChangedFrom="0" laneChangedTo="0" teleported="2"/>
        <edge id="-155315711" sampledSeconds="4816.71" traveltime="88.17" overlapTraveltime="92.15" density="32.22" laneDensity="32.22" occupancy="20.44" waitingTime="3717.00" timeLoss="4472.28" speed="0.94" speedRelative="0.07" departed="12" arrived="6" entered="53" left="59" laneChangedFrom="0" laneChangedTo="0" teleported="23"/>
        <edge id="-155315719#0" sampledSeconds="2736.55" traveltime="40.89" overlapTraveltime="41.93" density="3.14" laneDensity="3.14" occupancy="1.45" waitingTime="95.00" timeLoss="561.75" speed="11.30" speedRelative="0.51" departed="26" arrived="9" entered="53" left="70" laneChangedFrom="0" laneChangedTo="0" teleported="1"/>
        <edge id="-155315719#1" sampledSeconds="3323.39" traveltime="19.66" overlapTraveltime="21.54" density="11.19" laneDensity="11.19" occupancy="4.70" waitingTime="547.00" timeLoss="1434.50" speed="7.62" speedRelative="0.34" departed="11" arrived="8" entered="152" left="144" laneChangedFrom="0" laneChangedTo="0" teleported="9"/>
        <edge id="-155315719#15" sampledSeconds="459.25" traveltime="85.16" overlapTraveltime="85.61" density="0.28" laneDensity="0.28" occupancy="0.07" waitingTime="0.00" timeLoss="27.49" speed="10.31" speedRelative="0.46" departed="12" arrived="0" entered="0" left="12" laneChangedFrom="0" laneChangedTo="0"/>
        <edge id="-155315719#2" sampledSeconds="1505.93" traveltime="10.02" overlapTraveltime="10.36" density="7.46" laneDensity="7.46" occupancy="2.71" waitingTime="0.00" timeLoss="330.77" speed="10.84" speedRelative="0.49" departed="18" arrived="6" entered="136" left="147" laneChangedFrom="0" laneChangedTo="0"/>
        <edge id="-155315719#8" sampledSeconds="3237.91" traveltime="35.69" overlapTraveltime="36.72" density="4.73" laneDensity="4.73" occupancy="1.77" waitingTime="39.00" timeLoss="896.11" speed="10.14" speedRelative="0.46" departed="15" arrived="10" entered="81" left="85" laneChangedFrom="0" laneChangedTo="0" teleported="1"/>
        <edge id="-155775198#0" sampledSeconds="8369.32" traveltime="49.82" overlapTraveltime="50.71" density="11.90" laneDensity="11.90" occupancy="4.40" waitingTime="1593.00" timeLoss="3195.25" speed="7.53" speedRelative="0.27" departed="15" arrived="6" entered="158" left="167" laneChangedFrom="0" laneChangedTo="0" teleported="13"/>
        <edge id="-155775198#3" sampledSeconds="12172.39" traveltime="64.25" overlapTraveltime="65.35" density="16.67" laneDensity="16.67" occupancy="6.53" waitingTime="3719.00" timeLoss="6103.94" speed="6.07" speedRelative="0.22" departed="15" arrived="8" entered="184" left="188" laneChangedFrom="0" laneChangedTo="0" teleported="31"/>
        <edge id="-155775198#4" sampledSeconds="2993.17" traveltime="18.92" overlapTraveltime="20.13" density="50.86" laneDensity="50.86" occupancy="20.17" waitingTime="1932.00" timeLoss="2550.24" speed="1.78" speedRelative="0.06" departed="19" arrived="3" entered="146" left="159" laneChangedFrom="0" laneChangedTo="0" teleported="13"/>
        <edge id="-155775198#5" sampledSeconds="2466.99" traveltime="6.67" overlapTraveltime="11.09" density="123.73" laneDensity="123.73" occupancy="48.82" waitingTime="1486.00" timeLoss="2173.32" speed="1.48" speedRelative="0.05" departed="11" arrived="7" entered="264" left="268" laneChangedFrom="0" laneChangedTo="0" teleported="16"/>
        <edge id="-155775198#6" sampledSeconds="7670.78" traveltime="35.23" overlapTraveltime="37.08" density="20.81" laneDensity="20.81" occupancy="10.08" waitingTime="2582.00" timeLoss="4703.25" speed="5.48" speedRelative="0.20" departed="18" arrived="5" entered="200" left="213" laneChangedFrom="0" laneChangedTo="0" teleported="16"/>
        <edge id="-155775200#1" sampledSeconds="195981.61" traveltime="378.69" overlapTraveltime="380.97" density="142.25" laneDensity="142.25" occupancy="75.03" waitingTime="100866.00" timeLoss="169905.19" speed="1.96" speedRelative="0.07" departed="9" arrived="3" entered="697" left="515" laneChangedFrom="0" laneChangedTo="0" teleported="265"/>
        <edge id="-163652291" sampledSeconds="3657.10" traveltime="44.08" overlapTraveltime="47.52" density="54.66" laneDensity="54.66" occupancy="27.59" waitingTime="2860.00" timeLoss="3432.57" speed="0.87" speedRelative="0.03" departed="17" arrived="12" entered="78" left="80" laneChangedFrom="0" laneChangedTo="0" teleported="30"/>
        <edge id="-205021436#0" sampledSeconds="89511.03" traveltime="233.05" overlapTraveltime="235.66" density="85.95" laneDensity="85.95" occupancy="43.75" waitingTime="38259.52" timeLoss="74854.82" speed="2.40" speedRelative="0.09" departed="13" arrived="2" entered="485" left="406" laneChangedFrom="0" laneChangedTo="0" teleported="149"/>
        <edge id="-205021436#1" sampledSeconds="9849.05" traveltime="20.79" overlapTraveltime="22.56" density="51.49" laneDensity="51.49" occupancy="25.99" waitingTime="3390.00" timeLoss="6698.97" speed="4.80" speedRelative="0.17" departed="8" arrived="4" entered="462" left="447" laneChangedFrom="0" laneChangedTo="0" teleported="17"/>
        <edge id="-271412010" sampledSeconds="1919.94" traveltime="41.78" overlapTraveltime="42.72" density="3.19" laneDensity="3.19" occupancy="1.48" waitingTime="562.00" timeLoss="837.12" speed="7.68" speedRelative="0.55" departed="12" arrived="6" entered="38" left="44" laneChangedFrom="0" laneChangedTo="0" teleported="8"/>
        <edge id="-31905181#0" sampledSeconds="5580.18" traveltime="25.67" overlapTraveltime="26.73" density="19.72" laneDensity="19.72" occupancy="8.27" waitingTime="531.00" timeLoss="2737.84" speed="5.86" speedRelative="0.42" departed="18" arrived="5" entered="204" left="213" laneChangedFrom="0" laneChangedTo="0" teleported="8"/>
        <edge id="-31905181#3" sampledSeconds="8336.47" traveltime="45.16" overlapTraveltime="45.71" density="13.34" laneDensity="13.34" occupancy="5.42" waitingTime="0.00" timeLoss="3148.11" speed="7.44" speedRelative="0.54" departed="20" arrived="7" entered="173" left="175" laneChangedFrom="0" laneChangedTo="0"/>
        <edge id="-31905190#0" sampledSeconds="352.02" traveltime="8.56" overlapTraveltime="9.19" density="2.04" laneDensity="2.04" occupancy="0.61" waitingTime="1.00" timeLoss="70.27" speed="10.45" speedRelative="0.75" departed="15" arrived="8" entered="30" left="37" laneChangedFrom="0" laneChangedTo="0"/>
        <edge id="-31905190#3" sampledSeconds="870.63" traveltime="16.71" overlapTraveltime="17.53" density="2.63" laneDensity="2.63" occupancy="0.79" waitingTime="13.00" timeLoss="83.96" speed="10.34" speedRelative="0.74" departed="19" arrived="9" entered="42" left="51" laneChangedFrom="0" laneChangedTo="0"/>
        <edge id="-31905195#1" sampledSeconds="453.16" traveltime="8.90" overlapTraveltime="9.77" density="3.12" laneDensity="3.12" occupancy="1.23" waitingTime="28.00" timeLoss="139.52" speed="8.44" speedRelative="0.61" departed="18" arrived="15" entered="37" left="39" laneChangedFrom="0" laneChangedTo="0"/>
        <edge id="-31905195#2" sampledSeconds="896.49" traveltime="15.44" overlapTraveltime="16.24" density="4.21" laneDensity="4.21" occupancy="1.41" waitingTime="218.00" timeLoss="385.28" speed="7.26" speedRelative="0.52" departed="12" arrived="7" entered="49" left="54" laneChangedFrom="0" laneChangedTo="0" teleported="2"/>
        <edge id="-31905201#2" sampledSeconds="3352.98" traveltime="32.64" overlapTraveltime="33.70" density="4.76" laneDensity="4.76" occupancy="1.89" waitingTime="650.11" timeLoss="997.52" speed="11.37" speedRelative="0.41" departed="10" arrived="8" entered="96" left="96" laneChangedFrom="0" laneChangedTo="0" teleported="6"/>
        <edge id="-31905214" sampledSeconds="7875.99" traveltime="30.45" overlapTraveltime="31.61" density="35.61" laneDensity="35.61" occupancy="15.28" waitingTime="4044.00" timeLoss="5794.16" speed="3.90" speedRelative="0.14" departed="19" arrived="10" entered="246" left="243" laneChangedFrom="0" laneChangedTo="0" teleported="54"/>
        <edge id="-322191552" sampledSeconds="53470.27" traveltime="122.39" overlapTraveltime="123.48" density="81.23" laneDensity="81.23" occupancy="34.72" waitingTime="10169.00" timeLoss="42684.55" speed="2.90" speedRelative="0.10" departed="19" arrived="5" entered="527" left="483" laneChangedFrom="0" laneChangedTo="0" teleported="121"/>
        <edge id="-406038877" sampledSeconds="982.87" traveltime="81.70" overlapTraveltime="82.59" density="1.35" laneDensity="1.35" occupancy="0.60" waitingTime="0.00" timeLoss="142.84" speed="4.79" speedRelative="0.86" departed="0" arrived="12" entered="12" left="0" laneChangedFrom="0" laneChangedTo="0"/>