<?xml version="1.0" encoding="UTF-8"?>

<!-- generated on 2025-08-19 15:11:10 by Eclipse SUMO GUI Version 1.23.1
<sumoConfiguration xmlns:xsi="http://www.w3.org/2001/XMLSchema-instance" xsi:noNamespaceSchemaLocation="http://sumo.dlr.de/xsd/sumoConfiguration.xsd">

    <input>
        <net-file value="PhuQuoc/phuquoc.net.xml"/>
        <route-files value="PhuQuoc/phuquoc.rou.xml,PhuQuoc/phuquoc-demo.rou.xml"/>
        <additional-files value="PhuQuoc/detector.add.xml"/>
    </input>

    <output>
        <tripinfo-output value="D:\He_thong_giao_thong_thich_ung\Algorithms_code\PC_Algorithms\output\tripinfo.xml"/>
        <vehroute-output value="PhuQuoc/../../output/vehroutes_baseline.xml"/>
        <edgedata-output value="D:\He_thong_giao_thong_thich_ung\Algorithms_code\PC_Algorithms\output\edgedata.xml"/>
    </output>

    <time>
        <step-length value="1"/>
    </time>

    <processing>
        <lateral-resolution value="0.5"/>
        <ignore-route-errors value="true"/>
        <time-to-teleport value="50"/>
        <tls.actuated.jam-threshold value="30"/>
    </processing>

    <routing>
        <device.rerouting.adaptation-steps value="18"/>
        <device.rerouting.adaptation-interval value="10"/>
    </routing>

    <report>
        <verbose value="true"/>
        <duration-log.statistics value="true"/>
        <no-step-log value="true"/>
    </report>

    <traci_server>
        <remote-port value="8814"/>
    </traci_server>

    <gui_only>
        <gui-settings-file value="PhuQuoc/phuquoc.view.xml"/>
        <start value="true"/>
    </gui_only>

</sumoConfiguration>
-->

<meandata xmlns:xsi="http://www.w3.org/2001/XMLSchema-instance" xsi:noNamespaceSchemaLocation="http://sumo.dlr.de/xsd/meandata_file.xsd">
    <interval begin="0.00" end="1860.00" id="DEFAULT_EDGEDATA">
        <edge id="-100954129#0" sampledSeconds="5660.40" traveltime="32.10" overlapTraveltime="33.66" density="51.90" laneDensity="51.90" occupancy="20.32" waitingTime="3036.00" timeLoss="4680.96" speed="1.86" speedRelative="0.13" departed="14" arrived="9" entered="187" left="180" laneChangedFrom="0" laneChangedTo="0" teleported="24"/>
        <edge id="-100954129#1" sampledSeconds="2168.39" traveltime="13.42" overlapTraveltime="14.22" density="21.98" laneDensity="21.98" occupancy="9.18" waitingTime="713.00" timeLoss="1341.54" speed="4.04" speedRelative="0.29" departed="16" arrived="4" entered="156" left="161" laneChangedFrom="0" laneChangedTo="0" teleported="12"/>
        <edge id="-100954129#3" sampledSeconds="5514.75" traveltime="28.64" overlapTraveltime="29.85" density="43.52" laneDensity="43.52" occupancy="21.62" waitingTime="2931.00" timeLoss="4411.38" speed="2.45" speedRelative="0.18" departed="7" arrived="10" entered="209" left="201" laneChangedFrom="0" laneChangedTo="0" teleported="50"/>
        <edge id="-100954129#4" sampledSeconds="1118.62" traveltime="5.35" overlapTraveltime="5.81" density="11.26" laneDensity="11.26" occupancy="4.42" waitingTime="3.00" timeLoss="218.55" speed="9.96" speedRelative="0.72" departed="8" arrived="9" entered="190" left="187" laneChangedFrom="0" laneChangedTo="0"/>
        <edge id="-100954129#5" sampledSeconds="2670.47" traveltime="15.36" overlapTraveltime="15.89" density="9.02" laneDensity="9.02" occupancy="3.74" waitingTime="10.00" timeLoss="507.32" speed="10.30" speedRelative="0.74" departed="14" arrived="13" entered="173" left="173" laneChangedFrom="0" laneChangedTo="0" teleported="1"/>
        <edge id="-100954163#9" sampledSeconds="297.77" traveltime="17.80" overlapTraveltime="19.13" density="0.83" laneDensity="0.83" occupancy="0.31" waitingTime="0.00" timeLoss="45.71" speed="10.32" speedRelative="0.74" departed="19" arrived="3" entered="7" left="23" laneChangedFrom="0" laneChangedTo="0"/>
        <edge id="-100954245#13" sampledSeconds="3585.40" traveltime="137.45" overlapTraveltime="139.57" density="1.32" laneDensity="1.32" occupancy="0.61" waitingTime="374.00" timeLoss="1096.58" speed="10.46" speedRelative="0.47" departed="12" arrived="4" entered="18" left="25" laneChangedFrom="0" laneChangedTo="0" teleported="1"/>
        <edge id="-1056899464#0" sampledSeconds="2838.78" traveltime="12.39" overlapTraveltime="14.11" density="19.25" laneDensity="19.25" occupancy="8.54" waitingTime="575.00" timeLoss="1461.09" speed="5.96" speedRelative="0.43" departed="13" arrived="3" entered="203" left="201" laneChangedFrom="0" laneChangedTo="0" teleported="6"/>
        <edge id="-1056899464#1" sampledSeconds="2283.72" traveltime="8.64" overlapTraveltime="9.21" density="13.68" laneDensity="13.68" occupancy="5.74" waitingTime="75.00" timeLoss="437.02" speed="10.24" speedRelative="0.74" departed="18" arrived="4" entered="239" left="250" laneChangedFrom="0" laneChangedTo="0"/>
        <edge id="-1117528626#0" sampledSeconds="197.05" traveltime="38.97" overlapTraveltime="45.82" density="0.41" laneDensity="0.41" occupancy="0.16" waitingTime="77.00" timeLoss="115.02" speed="5.80" speedRelative="0.26" departed="9" arrived="0" entered="0" left="9" laneChangedFrom="0" laneChangedTo="0"/>
        <edge id="-1117528626#1" sampledSeconds="1314.08" traveltime="53.87" overlapTraveltime="54.77" density="1.59" laneDensity="1.59" occupancy="0.72" waitingTime="512.00" timeLoss="668.04" speed="8.21" speedRelative="0.37" departed="13" arrived="9" entered="17" left="21" laneChangedFrom="0" laneChangedTo="0" teleported="10"/>
        <edge id="-1117528627#1" sampledSeconds="89.70" traveltime="17.90" overlapTraveltime="18.22" density="0.25" laneDensity="0.25" occupancy="0.08" waitingTime="0.00" timeLoss="8.19" speed="10.80" speedRelative="0.39" departed="0" arrived="5" entered="5" left="0" laneChangedFrom="0" laneChangedTo="0"/>
        <edge id="-1117528627#2" sampledSeconds="1246.31" traveltime="48.03" overlapTraveltime="49.81" density="1.51" laneDensity="1.51" occupancy="0.59" waitingTime="394.00" timeLoss="550.37" speed="9.00" speedRelative="0.32" departed="10" arrived="8" entered="21" left="23" laneChangedFrom="0" laneChangedTo="0" teleported="1"/>
        <edge id="-1135316108" sampledSeconds="5747.37" traveltime="67.59" overlapTraveltime="67.80" density="2.96" laneDensity="2.96" occupancy="1.10" waitingTime="0.00" timeLoss="407.69" speed="15.44" speedRelative="0.69" departed="15" arrived="10" entered="81" left="79" laneChangedFrom="0" laneChangedTo="0"/>
        <edge id="-1135316109" sampledSeconds="2260.19" traveltime="23.24" overlapTraveltime="24.39" density="5.72" laneDensity="5.72" occupancy="2.22" waitingTime="385.00" timeLoss="870.44" speed="8.88" speedRelative="0.40" departed="14" arrived="7" entered="86" left="93" laneChangedFrom="0" laneChangedTo="0" teleported="3"/>
        <edge id="-1149576119" sampledSeconds="803.54" traveltime="29.03" overlapTraveltime="38.74" density="533.34" laneDensity="533.34" occupancy="38.96" waitingTime="744.00" timeLoss="784.93" speed="0.16" speedRelative="0.01" departed="13" arrived="8" entered="32" left="37" laneChangedFrom="0" laneChangedTo="0" teleported="11"/>
        <edge id="-1149578009" sampledSeconds="311.27" traveltime="14.58" overlapTraveltime="22.19" density="169.04" laneDensity="169.04" occupancy="15.26" waitingTime="275.00" timeLoss="301.11" speed="0.23" speedRelative="0.01" departed="9" arrived="10" entered="16" left="15" laneChangedFrom="0" laneChangedTo="0" teleported="5"/>
        <edge id="-1149578943" sampledSeconds="946.29" traveltime="30.00" overlapTraveltime="34.13" density="227.12" laneDensity="227.12" occupancy="46.08" waitingTime="842.00" timeLoss="923.73" speed="0.17" speedRelative="0.01" departed="17" arrived="4" entered="28" left="41" laneChangedFrom="0" laneChangedTo="0" teleported="8"/>
        <edge id="-1149578944" sampledSeconds="724.55" traveltime="25.00" overlapTraveltime="25.47" density="1180.44" laneDensity="1180.44" occupancy="29.42" waitingTime="680.00" timeLoss="709.94" speed="0.12" speedRelative="0.01" departed="15" arrived="4" entered="34" left="45" laneChangedFrom="0" laneChangedTo="0" teleported="10"/>
        <edge id="-1149578945" sampledSeconds="689.42" traveltime="38.41" overlapTraveltime="36.01" density="500.89" laneDensity="500.89" occupancy="34.57" waitingTime="655.00" timeLoss="677.56" speed="0.12" speedRelative="0.01" departed="2" arrived="4" entered="49" left="47" laneChangedFrom="0" laneChangedTo="0" teleported="14"/>
        <edge id="-1149579534" sampledSeconds="659.77" traveltime="43.81" overlapTraveltime="33.03" density="1612.35" laneDensity="1612.35" occupancy="26.39" waitingTime="632.39" timeLoss="648.09" speed="0.11" speedRelative="0.00" departed="11" arrived="2" entered="28" left="36" laneChangedFrom="0" laneChangedTo="0" teleported="13"/>
        <edge id="-1149579535" sampledSeconds="933.07" traveltime="42.31" overlapTraveltime="60.41" density="528.05" laneDensity="528.05" occupancy="45.11" waitingTime="854.00" timeLoss="918.42" speed="0.10" speedRelative="0.00" departed="15" arrived="3" entered="40" left="51" laneChangedFrom="0" laneChangedTo="0" teleported="15"/>
        <edge id="-1149580108" sampledSeconds="1130.29" traveltime="37.51" overlapTraveltime="72.05" density="437.18" laneDensity="437.18" occupancy="56.61" waitingTime="1068.00" timeLoss="1117.96" speed="0.09" speedRelative="0.00" departed="17" arrived="8" entered="47" left="53" laneChangedFrom="0" laneChangedTo="0" teleported="16"/>
        <edge id="-1149580109" sampledSeconds="740.85" traveltime="29.37" overlapTraveltime="47.42" density="1991.52" laneDensity="1991.52" occupancy="24.59" waitingTime="698.99" timeLoss="728.10" speed="0.11" speedRelative="0.00" departed="13" arrived="8" entered="30" left="34" laneChangedFrom="0" laneChangedTo="0" teleported="10"/>
        <edge id="-1149580110" sampledSeconds="573.53" traveltime="30.22" overlapTraveltime="39.47" density="1541.76" laneDensity="1541.76" occupancy="20.23" waitingTime="543.97" timeLoss="561.47" speed="0.12" speedRelative="0.01" departed="9" arrived="5" entered="28" left="32" laneChangedFrom="0" laneChangedTo="0" teleported="11"/>
        <edge id="-1149580308" sampledSeconds="402.37" traveltime="18.49" overlapTraveltime="23.93" density="204.08" laneDensity="204.08" occupancy="19.49" waitingTime="362.00" timeLoss="389.57" speed="0.23" speedRelative="0.01" departed="2" arrived="5" entered="28" left="25" laneChangedFrom="0" laneChangedTo="0" teleported="4"/>
        <edge id="-1149581388" sampledSeconds="2796.79" traveltime="13.13" overlapTraveltime="13.62" density="10.89" laneDensity="10.89" occupancy="4.50" waitingTime="0.00" timeLoss="859.39" speed="10.46" speedRelative="0.47" departed="9" arrived="2" entered="235" left="237" laneChangedFrom="0" laneChangedTo="0"/>
        <edge id="-1149582046#3" sampledSeconds="2597.49" traveltime="201.97" overlapTraveltime="202.15" density="0.69" laneDensity="0.35" occupancy="0.08" waitingTime="0.00" timeLoss="142.74" speed="10.01" speedRelative="0.36" departed="0" arrived="12" entered="14" left="0" laneChangedFrom="1" laneChangedTo="2"/>
        <edge id="-1270367191#1" sampledSeconds="4952.79" traveltime="25.46" overlapTraveltime="26.23" density="10.54" laneDensity="10.54" occupancy="4.21" waitingTime="216.00" timeLoss="1786.38" speed="9.79" speedRelative="0.35" departed="10" arrived="2" entered="189" left="194" laneChangedFrom="0" laneChangedTo="0" teleported="2"/>
        <edge id="-1270367191#2" sampledSeconds="1534.30" traveltime="4.06" overlapTraveltime="9.61" density="200.70" laneDensity="200.70" occupancy="45.20" waitingTime="1140.00" timeLoss="1405.21" speed="0.92" speedRelative="0.03" departed="24" arrived="3" entered="247" left="268" laneChangedFrom="0" laneChangedTo="0" teleported="5"/>
        <edge id="-1307054560#0" sampledSeconds="8990.68" traveltime="48.96" overlapTraveltime="53.39" density="171.96" laneDensity="171.96" occupancy="82.11" waitingTime="6830.81" timeLoss="8537.52" speed="0.63" speedRelative="0.02" departed="12" arrived="3" entered="238" left="245" laneChangedFrom="0" laneChangedTo="0" teleported="57"/>
        <edge id="-1307054560#1" sampledSeconds="10132.54" traveltime="44.66" overlapTraveltime="52.49" density="106.59" laneDensity="106.59" occupancy="58.27" waitingTime="6152.51" timeLoss="9352.53" speed="1.09" speedRelative="0.04" departed="16" arrived="3" entered="232" left="245" laneChangedFrom="0" laneChangedTo="0" teleported="43"/>
        <edge id="-1307054560#2" sampledSeconds="9458.49" traveltime="38.12" overlapTraveltime="43.12" density="48.32" laneDensity="48.32" occupancy="25.91" waitingTime="4246.20" timeLoss="7790.20" speed="2.58" speedRelative="0.09" departed="10" arrived="3" entered="229" left="236" laneChangedFrom="0" laneChangedTo="0" teleported="32"/>
        <edge id="-1307054560#3" sampledSeconds="2262.57" traveltime="9.14" overlapTraveltime="9.81" density="11.41" laneDensity="11.41" occupancy="4.41" waitingTime="84.00" timeLoss="521.55" speed="11.30" speedRelative="0.41" departed="12" arrived="1" entered="224" left="235" laneChangedFrom="0" laneChangedTo="0" teleported="1"/>
        <edge id="-1307054560#4" sampledSeconds="2211.09" traveltime="9.24" overlapTraveltime="9.76" density="10.12" laneDensity="10.12" occupancy="3.79" waitingTime="52.00" timeLoss="331.04" speed="12.45" speedRelative="0.45" departed="15" arrived="4" entered="223" left="231" laneChangedFrom="0" laneChangedTo="0"/>
        <edge id="-1307054560#5" sampledSeconds="3662.65" traveltime="14.48" overlapTraveltime="16.11" density="15.89" laneDensity="15.89" occupancy="7.20" waitingTime="850.00" timeLoss="1640.80" speed="8.01" speedRelative="0.29" departed="17" arrived="2" entered="222" left="235" laneChangedFrom="0" laneChangedTo="0" teleported="5"/>
        <edge id="-152227686#0" sampledSeconds="1209.69" traveltime="5.25" overlapTraveltime="5.67" density="11.71" laneDensity="11.71" occupancy="4.70" waitingTime="0.00" timeLoss="181.62" speed="10.61" speedRelative="0.76" departed="17" arrived="11" entered="206" left="210" laneChangedFrom="0" laneChangedTo="0"/>
        <edge id="-152227686#1" sampledSeconds="533.28" traveltime="2.31" overlapTraveltime="2.76" density="14.44" laneDensity="14.44" occupancy="4.93" waitingTime="0.00" timeLoss="147.57" speed="8.85" speedRelative="0.64" departed="16" arrived="9" entered="186" left="192" laneChangedFrom="0" laneChangedTo="0"/>
        <edge id="-152227686#2" sampledSeconds="45.27" traveltime="0.69" overlapTraveltime="1.77" density="6.07" laneDensity="6.07" occupancy="1.37" waitingTime="6.00" timeLoss="20.75" speed="5.56" speedRelative="0.40" departed="15" arrived="5" entered="16" left="26" laneChangedFrom="0" laneChangedTo="0"/>
        <edge id="-152227686#6" sampledSeconds="434.87" traveltime="24.72" overlapTraveltime="25.09" density="0.81" laneDensity="0.81" occupancy="0.30" waitingTime="0.00" timeLoss="36.84" speed="11.67" speedRelative="0.84" departed="11" arrived="10" entered="13" left="14" laneChangedFrom="0" laneChangedTo="0"/>
        <edge id="-152227697#2" sampledSeconds="40.34" traveltime="13.29" overlapTraveltime="13.52" density="0.10" laneDensity="0.10" occupancy="0.04" waitingTime="0.00" timeLoss="8.07" speed="16.65" speedRelative="0.75" departed="0" arrived="3" entered="3" left="0" laneChangedFrom="0" laneChangedTo="0"/>
        <edge id="-152227697#3" sampledSeconds="582.91" traveltime="3.69" overlapTraveltime="7.93" density="90.84" laneDensity="90.84" occupancy="18.51" waitingTime="353.00" timeLoss="470.39" speed="1.41" speedRelative="0.06" departed="19" arrived="6" entered="107" left="120" laneChangedFrom="0" laneChangedTo="0"/>
        <edge id="-155315678#4" sampledSeconds="32203.01" traveltime="182.29" overlapTraveltime="183.94" density="26.74" laneDensity="26.74" occupancy="14.99" waitingTime="14196.00" timeLoss="25847.29" speed="3.55" speedRelative="0.16" departed="12" arrived="6" entered="192" left="157" laneChangedFrom="0" laneChangedTo="0" teleported="52"/>
        <edge id="-155315678#5" sampledSeconds="6403.69" traveltime="41.47" overlapTraveltime="43.14" density="12.77" laneDensity="12.77" occupancy="4.75" waitingTime="2163.00" timeLoss="3489.71" speed="6.34" speedRelative="0.29" departed="18" arrived="9" entered="142" left="150" laneChangedFrom="0" laneChangedTo="0" teleported="16"/>
        <edge id="-155315680#1" sampledSeconds="722.56" traveltime="11.87" overlapTraveltime="15.19" density="3.90" laneDensity="3.90" occupancy="1.51" waitingTime="144.00" timeLoss="260.51" speed="6.85" speedRelative="0.49" departed="18" arrived="4" entered="41" left="55" laneChangedFrom="0" laneChangedTo="0" teleported="1"/>
        <edge id="-155315682" sampledSeconds="899.04" traveltime="11.86" overlapTraveltime="12.58" density="4.72" laneDensity="4.72" occupancy="1.49" waitingTime="7.00" timeLoss="262.19" speed="8.41" speedRelative="0.61" departed="16" arrived="9" entered="65" left="70" laneChangedFrom="0" laneChangedTo="0"/>
        <edge id="-155315683" sampledSeconds="811.92" traveltime="22.79" overlapTraveltime="23.93" density="2.16" laneDensity="2.16" occupancy="0.83" waitingTime="122.00" timeLoss="276.87" speed="8.61" speedRelative="0.62" departed="13" arrived="8" entered="28" left="33" laneChangedFrom="0" laneChangedTo="0"/>
        <edge id="-155315688#0" sampledSeconds="457.60" traveltime="12.20" overlapTraveltime="13.42" density="3.70" laneDensity="3.70" occupancy="1.50" waitingTime="157.00" timeLoss="257.75" speed="5.28" speedRelative="0.38" departed="14" arrived="12" entered="26" left="28" laneChangedFrom="0" laneChangedTo="0"/>
        <edge id="-155315688#1" sampledSeconds="749.75" traveltime="9.19" overlapTraveltime="10.00" density="4.37" laneDensity="4.37" occupancy="1.57" waitingTime="19.00" timeLoss="202.31" speed="9.62" speedRelative="0.69" departed="11" arrived="5" entered="70" left="76" laneChangedFrom="0" laneChangedTo="0"/>
        <edge id="-155315693#2" sampledSeconds="3945.63" traveltime="48.78" overlapTraveltime="49.93" density="7.74" laneDensity="7.74" occupancy="4.17" waitingTime="1363.00" timeLoss="1986.69" speed="5.60" speedRelative="0.40" departed="14" arrived="8" entered="73" left="78" laneChangedFrom="0" laneChangedTo="0" teleported="12"/>
        <edge id="-155315693#8" sampledSeconds="510.55" traveltime="46.26" overlapTraveltime="50.06" density="0.67" laneDensity="0.67" occupancy="0.15" waitingTime="32.00" timeLoss="64.46" speed="8.24" speedRelative="0.59" departed="22" arrived="0" entered="0" left="22" laneChangedFrom="0" laneChangedTo="0"/>
        <edge id="-155315694#2" sampledSeconds="3172.38" traveltime="55.08" overlapTraveltime="56.51" density="7.66" laneDensity="7.66" occupancy="3.45" waitingTime="1647.00" timeLoss="2048.22" speed="4.02" speedRelative="0.29" departed="16" arrived="13" entered="50" left="51" laneChangedFrom="0" laneChangedTo="0" teleported="11"/>
        <edge id="-155315694#3" sampledSeconds="207.61" traveltime="4.71" overlapTraveltime="5.22" density="2.72" laneDensity="2.72" occupancy="0.98" waitingTime="0.00" timeLoss="55.05" speed="8.65" speedRelative="0.62" departed="17" arrived="10" entered="31" left="37" laneChangedFrom="0" laneChangedTo="0"/>
        <edge id="-155315695#0" sampledSeconds="9440.02" traveltime="93.64" overlapTraveltime="96.44" density="49.02" laneDensity="49.02" occupancy="24.13" waitingTime="6784.00" timeLoss="8574.06" speed="1.13" speedRelative="0.08" departed="20" arrived="3" entered="125" left="117" laneChangedFrom="0" laneChangedTo="0" teleported="48"/>
        <edge id="-155315695#1" sampledSeconds="1383.50" traveltime="19.63" overlapTraveltime="20.58" density="18.09" laneDensity="18.09" occupancy="8.69" waitingTime="792.00" timeLoss="1137.20" speed="2.26" speedRelative="0.16" departed="17" arrived="7" entered="72" left="71" laneChangedFrom="0" laneChangedTo="0" teleported="4"/>
        <edge id="-155315695#3" sampledSeconds="2154.82" traveltime="29.58" overlapTraveltime="32.40" density="4.74" laneDensity="4.74" occupancy="1.92" waitingTime="443.00" timeLoss="907.97" speed="7.68" speedRelative="0.55" departed="14" arrived="7" entered="64" left="63" laneChangedFrom="0" laneChangedTo="0" teleported="11"/>
        <edge id="-155315695#4" sampledSeconds="461.11" traveltime="6.42" overlapTraveltime="7.02" density="4.86" laneDensity="4.86" occupancy="1.81" waitingTime="52.00" timeLoss="169.11" speed="7.88" speedRelative="0.57" departed="20" arrived="9" entered="57" left="68" laneChangedFrom="0" laneChangedTo="0" teleported="2"/>
        <edge id="-155315711" sampledSeconds="2448.85" traveltime="35.48" overlapTraveltime="37.43" density="16.38" laneDensity="16.38" occupancy="8.61" waitingTime="1636.00" timeLoss="2035.74" speed="2.29" speedRelative="0.16" departed="12" arrived="7" entered="65" left="67" laneChangedFrom="0" laneChangedTo="0" teleported="24"/>
        <edge id="-155315719#0" sampledSeconds="7243.74" traveltime="100.63" overlapTraveltime="103.17" density="8.31" laneDensity="8.31" occupancy="4.47" waitingTime="2968.00" timeLoss="4836.14" speed="4.60" speedRelative="0.21" departed="26" arrived="8" entered="61" left="78" laneChangedFrom="0" laneChangedTo="0" teleported="15"/>
        <edge id="-155315719#1" sampledSeconds="2807.75" traveltime="17.83" overlapTraveltime="19.48" density="9.46" laneDensity="9.46" occupancy="3.72" waitingTime="247.00" timeLoss="997.39" speed="8.41" speedRelative="0.38" departed="12" arrived="9" entered="140" left="140" laneChangedFrom="0" laneChangedTo="0" teleported="7"/>
        <edge id="-155315719#15" sampledSeconds="479.05" traveltime="72.04" overlapTraveltime="76.68" density="0.29" laneDensity="0.29" occupancy="0.09" waitingTime="22.00" timeLoss="50.63" speed="11.52" speedRelative="0.52" departed="12" arrived="0" entered="0" left="12" laneChangedFrom="0" laneChangedTo="0"/>
        <edge id="-155315719#2" sampledSeconds="1484.46" traveltime="11.17" overlapTraveltime="11.52" density="7.36" laneDensity="7.36" occupancy="2.52" waitingTime="1.48" timeLoss="398.34" speed="9.74" speedRelative="0.44" departed="18" arrived="5" entered="119" left="131" laneChangedFrom="0" laneChangedTo="0"/>
        <edge id="-155315719#8" sampledSeconds="3152.17" traveltime="39.82" overlapTraveltime="40.72" density="4.60" laneDensity="4.60" occupancy="1.69" waitingTime="67.00" timeLoss="1030.47" speed="9.14" speedRelative="0.41" departed="15" arrived="11" entered="73" left="75" laneChangedFrom="0" laneChangedTo="0"/>
        <edge id="-155775198#0" sampledSeconds="8279.70" traveltime="55.44" overlapTraveltime="56.51" density="11.77" laneDensity="11.77" occupancy="5.15" waitingTime="2334.00" timeLoss="4026.94" speed="6.77" speedRelative="0.24" departed="15" arrived="8" entered="139" left="146" laneChangedFrom="0" laneChangedTo="0" teleported="20"/>
        <edge id="-155775198#3" sampledSeconds="17431.62" traveltime="84.34" overlapTraveltime="85.55" density="23.87" laneDensity="23.87" occupancy="11.71" waitingTime="7759.00" timeLoss="11731.51" speed="4.65" speedRelative="0.17" departed="15" arrived="6" entered="200" left="207" laneChangedFrom="0" laneChangedTo="0" teleported="35"/>
        <edge id="-155775198#4" sampledSeconds="3445.17" traveltime="17.69" overlapTraveltime="18.55" density="58.54" laneDensity="58.54" occupancy="22.82" waitingTime="2222.00" timeLoss="2960.78" speed="1.93" speedRelative="0.07" departed="19" arrived="4" entered="179" left="190" laneChangedFrom="0" laneChangedTo="0" teleported="8"/>
        <edge id="-155775198#5" sampledSeconds="1222.19" traveltime="2.80" overlapTraveltime="4.94" density="61.30" laneDensity="61.30" occupancy="23.23" waitingTime="509.00" timeLoss="912.15" speed="3.31" speedRelative="0.12" departed="11" arrived="7" entered="281" left="284" laneChangedFrom="0" laneChangedTo="0" teleported="7"/>
        <edge id="-155775198#6" sampledSeconds="6983.18" traveltime="21.97" overlapTraveltime="24.18" density="18.95" laneDensity="18.95" occupancy="7.87" waitingTime="1349.00" timeLoss="3117.50" speed="8.38" speedRelative="0.30" departed="18" arrived="4" entered="281" left="292" laneChangedFrom="0" laneChangedTo="0" teleported="23"/>
        <edge id="-155775200#1" sampledSeconds="203905.58" traveltime="385.65" overlapTraveltime="387.97" density="148.00" laneDensity="148.00" occupancy="79.10" waitingTime="90157.00" timeLoss="177226.09" speed="1.92" speedRelative="0.07" departed="7" arrived="1" entered="707" left="521" laneChangedFrom="0" laneChangedTo="0" teleported="259"/>
        <edge id="-163652291" sampledSeconds="2938.48" traveltime="33.96" overlapTraveltime="36.85" density="43.92" laneDensity="43.92" occupancy="24.28" waitingTime="2207.00" timeLoss="2697.39" speed="1.13" speedRelative="0.04" departed="17" arrived="14" entered="78" left="79" laneChangedFrom="0" laneChangedTo="0" teleported="23"/>
        <edge id="-205021436#0" sampledSeconds="90011.08" traveltime="222.23" overlapTraveltime="224.32" density="86.43" laneDensity="86.43" occupancy="43.96" waitingTime="34633.71" timeLoss="74459.59" speed="2.52" speedRelative="0.09" departed="13" arrived="2" entered="505" left="419" laneChangedFrom="0" laneChangedTo="0" teleported="147"/>
        <edge id="-205021436#1" sampledSeconds="11891.76" traveltime="27.01" overlapTraveltime="29.23" density="62.17" laneDensity="62.17" occupancy="33.47" waitingTime="3877.28" timeLoss="8950.91" speed="3.72" speedRelative="0.13" departed="8" arrived="4" entered="447" left="433" laneChangedFrom="0" laneChangedTo="0" teleported="30"/>
        <edge id="-271412010" sampledSeconds="3668.01" traveltime="63.30" overlapTraveltime="64.67" density="6.10" laneDensity="6.10" occupancy="3.79" waitingTime="1652.00" timeLoss="2285.72" speed="5.10" speedRelative="0.37" departed="12" arrived="7" entered="53" left="52" laneChangedFrom="0" laneChangedTo="0" teleported="9"/>
        <edge id="-31905181#0" sampledSeconds="5780.98" traveltime="28.28" overlapTraveltime="29.40" density="20.43" laneDensity="20.43" occupancy="8.65" waitingTime="870.00" timeLoss="3110.43" speed="5.33" speedRelative="0.38" departed="18" arrived="4" entered="190" left="203" laneChangedFrom="0" laneChangedTo="0" teleported="17"/>
        <edge id="-31905181#3" sampledSeconds="7308.71" traveltime="43.53" overlapTraveltime="44.10" density="11.70" laneDensity="11.70" occupancy="4.64" waitingTime="0.00" timeLoss="2575.03" speed="7.71" speedRelative="0.56" departed="20" arrived="8" entered="158" left="161" laneChangedFrom="0" laneChangedTo="0"/>
        <edge id="-31905190#0" sampledSeconds="463.13" traveltime="8.57" overlapTraveltime="9.23" density="2.68" laneDensity="2.68" occupancy="0.85" waitingTime="2.00" timeLoss="81.90" speed="10.42" speedRelative="0.75" departed="15" arrived="8" entered="44" left="50" laneChangedFrom="0" laneChangedTo="0"/>
        <edge id="-31905190#3" sampledSeconds="1068.33" traveltime="15.93" overlapTraveltime="16.57" density="3.22" laneDensity="3.22" occupancy="1.00" waitingTime="15.00" timeLoss="93.26" speed="10.94" speedRelative="0.79" departed="19" arrived="9" entered="55" left="64" laneChangedFrom="0" laneChangedTo="0"/>
        <edge id="-31905195#1" sampledSeconds="551.42" traveltime="9.40" overlapTraveltime="10.46" density="3.80" laneDensity="3.80" occupancy="1.42" waitingTime="44.00" timeLoss="195.35" speed="7.86" speedRelative="0.57" departed="18" arrived="15" entered="44" left="47" laneChangedFrom="0" laneChangedTo="0" teleported="1"/>
        <edge id="-31905195#2" sampledSeconds="1121.15" traveltime="18.83" overlapTraveltime="19.61" density="5.27" laneDensity="5.27" occupancy="1.65" waitingTime="401.00" timeLoss="581.71" speed="6.00" speedRelative="0.43" departed="12" arrived="7" entered="51" left="56" laneChangedFrom="0" laneChangedTo="0" teleported="6"/>
        <edge id="-31905201#2" sampledSeconds="3371.03" traveltime="28.67" overlapTraveltime="29.52" density="4.78" laneDensity="4.78" occupancy="1.80" waitingTime="267.48" timeLoss="630.55" speed="12.97" speedRelative="0.47" departed="10" arrived="8" entered="113" left="112" laneChangedFrom="0" laneChangedTo="0" teleported="1"/>
        <edge id="-31905214" sampledSeconds="6553.56" traveltime="33.41" overlapTraveltime="34.79" density="29.63" laneDensity="29.63" occupancy="13.48" waitingTime="3665.00" timeLoss="4978.00" speed="3.55" speedRelative="0.13" departed="19" arrived="9" entered="182" left="185" laneChangedFrom="0" laneChangedTo="0" teleported="39"/>
        <edge id="-322191552" sampledSeconds="54400.11" traveltime="144.26" overlapTraveltime="145.42" density="82.64" laneDensity="82.64" occupancy="36.94" waitingTime="15104.00" timeLoss="44673.56" speed="2.46" speedRelative="0.09" departed="13" arrived="3" entered="526" left="489" laneChangedFrom="0" laneChangedTo="0" teleported="79"/>
        <edge id="-406038877" sampledSeconds="781.84" traveltime="77.68" overlapTraveltime="78.69" density="1.07" laneDensity="1.07" occupancy="0.54" waitingTime="0.00" timeLoss="101.23" speed="5.04" speedRelative="0.91" departed="0" arrived="10" entered="10" left="0" laneChangedFrom="0" laneChangedTo="0"/>
        <edge id="-442885101#0" sampledSeconds="16744.55" traveltime="43.11" overlapTraveltime="44.25" density="69.14" laneDensity="34.57" occupancy="15.21" waitingTime="9152.00" timeLoss="13211.30" speed="3.04" speedRelative="0.11" departed="31" arrived="9" entered="388" left="391" laneChangedFrom="216" laneChangedTo="220" teleported="151"/>
        <edge id="-442885101#1" sampledSeconds="1944.69" traveltime="3.79" overlapTraveltime="4.85" density="28.87" laneDensity="14.44" occupancy="5.07" waitingTime="298.00" timeLoss="823.22" speed="8.35" speedRelative="0.30" departed="25" arrived="14" entered="394" left="400" laneChangedFrom="30" laneChangedTo="30" teleported="6"/>