<?xml version="1.0" encoding="UTF-8"?>

<!-- generated on 2025-08-22 17:52:15 by Eclipse SUMO GUI Version 1.24.0
<sumoConfiguration xmlns:xsi="http://www.w3.org/2001/XMLSchema-instance" xsi:noNamespaceSchemaLocation="http://sumo.dlr.de/xsd/sumoConfiguration.xsd">

    <input>
        <net-file value="src\PhuQuoc/phuquoc.net.xml"/>
        <route-files value="src\PhuQuoc/phuquoc.rou.xml,src\PhuQuoc/phuquoc-demo.rou.xml"/>
        <additional-files value="src\PhuQuoc/detector.add.xml"/>
    </input>

    <output>
        <tripinfo-output value="src\PhuQuoc/../../output/tripinfo_baseline.xml"/>
        <vehroute-output value="src\PhuQuoc/../../output/vehroutes_baseline.xml"/>
        <edgedata-output value="src\PhuQuoc/../../output/edgedata_baseline.xml"/>
    </output>

    <time>
        <step-length value="1"/>
    </time>

    <processing>
        <lateral-resolution value="0.5"/>
        <ignore-route-errors value="true"/>
        <time-to-teleport value="50"/>
        <tls.actuated.jam-threshold value="30"/>
    </processing>

    <routing>
        <device.rerouting.adaptation-steps value="18"/>
        <device.rerouting.adaptation-interval value="10"/>
    </routing>

    <report>
        <verbose value="true"/>
        <duration-log.statistics value="true"/>
        <no-step-log value="true"/>
    </report>

    <traci_server>
        <remote-port value="8814"/>
    </traci_server>

    <gui_only>
        <gui-settings-file value="src\PhuQuoc/phuquoc.view.xml"/>
        <start value="true"/>
        <delay value="0"/>
    </gui_only>

</sumoConfiguration>
-->

<meandata xmlns:xsi="http://www.w3.org/2001/XMLSchema-instance" xsi:noNamespaceSchemaLocation="http://sumo.dlr.de/xsd/meandata_file.xsd">
    <interval begin="0.00" end="3600.00" id="DEFAULT_EDGEDATA">
        <edge id="-100954129#0" sampledSeconds="11755.15" traveltime="36.60" overlapTraveltime="38.76" density="55.68" laneDensity="55.68" occupancy="24.10" waitingTime="6389.00" timeLoss="9966.13" speed="1.63" speedRelative="0.12" departed="22" arrived="14" entered="309" left="317" laneChangedFrom="0" laneChangedTo="0" teleported="49"/>
        <edge id="-100954129#1" sampledSeconds="1837.96" traveltime="7.99" overlapTraveltime="8.57" density="9.63" laneDensity="9.63" occupancy="3.12" waitingTime="266.00" timeLoss="612.08" speed="6.61" speedRelative="0.48" departed="19" arrived="10" entered="206" left="215" laneChangedFrom="0" laneChangedTo="0" teleported="6"/>
        <edge id="-100954129#3" sampledSeconds="6855.23" traveltime="22.76" overlapTraveltime="23.84" density="27.95" laneDensity="27.95" occupancy="12.42" waitingTime="3513.00" timeLoss="5171.31" speed="3.05" speedRelative="0.22" departed="13" arrived="16" entered="299" left="289" laneChangedFrom="0" laneChangedTo="0" teleported="39"/>
        <edge id="-100954129#4" sampledSeconds="1506.14" traveltime="5.34" overlapTraveltime="5.83" density="7.83" laneDensity="7.83" occupancy="3.04" waitingTime="38.00" timeLoss="314.85" speed="9.90" speedRelative="0.71" departed="16" arrived="18" entered="254" left="251" laneChangedFrom="0" laneChangedTo="0" teleported="3"/>
        <edge id="-100954129#5" sampledSeconds="3616.22" traveltime="15.09" overlapTraveltime="15.48" density="6.31" laneDensity="6.31" occupancy="2.58" waitingTime="0.00" timeLoss="621.30" speed="10.56" speedRelative="0.76" departed="18" arrived="23" entered="232" left="227" laneChangedFrom="0" laneChangedTo="0"/>
        <edge id="-100954163#8" sampledSeconds="13.63" traveltime="3.23" overlapTraveltime="3.50" density="0.09" laneDensity="0.09" occupancy="0.03" waitingTime="0.00" timeLoss="0.72" speed="12.41" speedRelative="0.89" departed="0" arrived="4" entered="4" left="0" laneChangedFrom="0" laneChangedTo="0"/>
        <edge id="-100954163#9" sampledSeconds="711.03" traveltime="18.40" overlapTraveltime="19.71" density="1.02" laneDensity="1.02" occupancy="0.40" waitingTime="0.00" timeLoss="95.64" speed="10.02" speedRelative="0.72" departed="23" arrived="6" entered="23" left="39" laneChangedFrom="0" laneChangedTo="0"/>
        <edge id="-100954245#13" sampledSeconds="6482.62" traveltime="116.81" overlapTraveltime="118.90" density="1.24" laneDensity="1.24" occupancy="0.45" waitingTime="786.00" timeLoss="1444.73" speed="12.27" speedRelative="0.55" departed="17" arrived="8" entered="45" left="53" laneChangedFrom="0" laneChangedTo="0" teleported="4"/>
        <edge id="-1056899464#0" sampledSeconds="2390.26" traveltime="7.85" overlapTraveltime="8.99" density="8.38" laneDensity="8.38" occupancy="3.43" waitingTime="22.44" timeLoss="634.90" speed="9.33" speedRelative="0.67" departed="19" arrived="10" entered="258" left="267" laneChangedFrom="0" laneChangedTo="0" teleported="2"/>
        <edge id="-1056899464#1" sampledSeconds="2324.34" traveltime="7.60" overlapTraveltime="8.02" density="7.19" laneDensity="7.19" occupancy="2.86" waitingTime="2.00" timeLoss="247.55" speed="11.73" speedRelative="0.84" departed="23" arrived="9" entered="277" left="290" laneChangedFrom="0" laneChangedTo="0"/>
        <edge id="-1117528626#0" sampledSeconds="518.86" traveltime="83.30" overlapTraveltime="88.95" density="0.55" laneDensity="0.55" occupancy="0.19" waitingTime="350.00" timeLoss="409.77" speed="2.98" speedRelative="0.13" departed="14" arrived="0" entered="0" left="14" laneChangedFrom="0" laneChangedTo="0" teleported="3"/>
        <edge id="-1117528626#1" sampledSeconds="2341.82" traveltime="53.11" overlapTraveltime="54.12" density="1.46" laneDensity="1.46" occupancy="0.67" waitingTime="791.00" timeLoss="1100.74" speed="8.31" speedRelative="0.37" departed="16" arrived="20" entered="35" left="30" laneChangedFrom="0" laneChangedTo="0" teleported="7"/>
        <edge id="-1117528627#1" sampledSeconds="126.39" traveltime="12.56" overlapTraveltime="12.83" density="0.18" laneDensity="0.18" occupancy="0.09" waitingTime="0.00" timeLoss="18.51" speed="15.45" speedRelative="0.56" departed="0" arrived="10" entered="10" left="0" laneChangedFrom="0" laneChangedTo="0"/>
        <edge id="-1117528627#2" sampledSeconds="2136.55" traveltime="55.96" overlapTraveltime="57.50" density="1.34" laneDensity="1.34" occupancy="0.64" waitingTime="669.00" timeLoss="948.13" speed="7.81" speedRelative="0.28" departed="14" arrived="14" entered="30" left="28" laneChangedFrom="0" laneChangedTo="0"/>
        <edge id="-1135316108" sampledSeconds="16499.29" traveltime="68.13" overlapTraveltime="68.37" density="4.39" laneDensity="4.39" occupancy="1.81" waitingTime="0.00" timeLoss="1183.81" speed="15.32" speedRelative="0.69" departed="21" arrived="15" entered="239" left="231" laneChangedFrom="0" laneChangedTo="0"/>
        <edge id="-1135316109" sampledSeconds="3983.39" traveltime="20.09" overlapTraveltime="21.16" density="5.21" laneDensity="5.21" occupancy="2.30" waitingTime="542.00" timeLoss="1537.76" speed="10.26" speedRelative="0.46" departed="21" arrived="15" entered="200" left="204" laneChangedFrom="0" laneChangedTo="0" teleported="4"/>
        <edge id="-1149576119" sampledSeconds="1225.78" traveltime="29.94" overlapTraveltime="47.83" density="420.36" laneDensity="420.36" occupancy="30.59" waitingTime="1152.00" timeLoss="1206.58" speed="0.12" speedRelative="0.01" departed="18" arrived="12" entered="42" left="48" laneChangedFrom="0" laneChangedTo="0" teleported="18"/>
        <edge id="-1149578009" sampledSeconds="526.83" traveltime="21.47" overlapTraveltime="43.04" density="147.82" laneDensity="147.82" occupancy="12.98" waitingTime="487.00" timeLoss="516.24" speed="0.16" speedRelative="0.01" departed="12" arrived="15" entered="21" left="18" laneChangedFrom="0" laneChangedTo="0" teleported="9"/>
        <edge id="-1149578943" sampledSeconds="1335.00" traveltime="23.63" overlapTraveltime="33.42" density="165.55" laneDensity="165.55" occupancy="32.80" waitingTime="1182.00" timeLoss="1296.80" speed="0.21" speedRelative="0.01" departed="19" arrived="8" entered="56" left="66" laneChangedFrom="0" laneChangedTo="0" teleported="14"/>
        <edge id="-1149578944" sampledSeconds="1209.54" traveltime="25.98" overlapTraveltime="42.93" density="1018.13" laneDensity="1018.13" occupancy="25.45" waitingTime="1135.00" timeLoss="1186.70" speed="0.12" speedRelative="0.01" departed="21" arrived="12" entered="50" left="59" laneChangedFrom="0" laneChangedTo="0" teleported="17"/>
        <edge id="-1149578945" sampledSeconds="1076.77" traveltime="43.41" overlapTraveltime="52.27" density="404.19" laneDensity="404.19" occupancy="27.28" waitingTime="1031.00" timeLoss="1063.24" speed="0.09" speedRelative="0.00" departed="10" arrived="6" entered="51" left="55" laneChangedFrom="0" laneChangedTo="0" teleported="16"/>
        <edge id="-1149579534" sampledSeconds="705.21" traveltime="34.99" overlapTraveltime="35.64" density="890.41" laneDensity="890.41" occupancy="14.02" waitingTime="664.95" timeLoss="691.80" speed="0.12" speedRelative="0.01" departed="13" arrived="9" entered="29" left="33" laneChangedFrom="0" laneChangedTo="0" teleported="6"/>
        <edge id="-1149579535" sampledSeconds="1133.74" traveltime="28.35" overlapTraveltime="44.99" density="331.50" laneDensity="331.50" occupancy="28.69" waitingTime="1046.00" timeLoss="1112.74" speed="0.13" speedRelative="0.01" departed="19" arrived="13" entered="58" left="64" laneChangedFrom="0" laneChangedTo="0" teleported="15"/>
        <edge id="-1149580108" sampledSeconds="1577.75" traveltime="39.19" overlapTraveltime="53.66" density="315.30" laneDensity="315.30" occupancy="40.86" waitingTime="1486.00" timeLoss="1553.46" speed="0.11" speedRelative="0.00" departed="24" arrived="12" entered="56" left="68" laneChangedFrom="0" laneChangedTo="0" teleported="28"/>
        <edge id="-1149580109" sampledSeconds="1117.50" traveltime="31.52" overlapTraveltime="39.75" density="1552.08" laneDensity="1552.08" occupancy="19.00" waitingTime="1055.98" timeLoss="1097.92" speed="0.11" speedRelative="0.01" departed="23" arrived="11" entered="49" left="61" laneChangedFrom="0" laneChangedTo="0" teleported="16"/>
        <edge id="-1149580110" sampledSeconds="849.50" traveltime="29.57" overlapTraveltime="26.52" density="1179.86" laneDensity="1179.86" occupancy="15.12" waitingTime="778.99" timeLoss="825.88" speed="0.18" speedRelative="0.01" departed="19" arrived="9" entered="43" left="53" laneChangedFrom="0" laneChangedTo="0" teleported="10"/>
        <edge id="-1149580308" sampledSeconds="919.90" traveltime="18.74" overlapTraveltime="26.01" density="241.06" laneDensity="241.06" occupancy="23.36" waitingTime="832.00" timeLoss="891.94" speed="0.21" speedRelative="0.01" departed="12" arrived="9" entered="57" left="60" laneChangedFrom="0" laneChangedTo="0" teleported="7"/>
        <edge id="-1149581388" sampledSeconds="3811.10" traveltime="11.24" overlapTraveltime="11.71" density="7.67" laneDensity="7.67" occupancy="3.54" waitingTime="0.00" timeLoss="1103.80" speed="12.22" speedRelative="0.55" departed="16" arrived="9" entered="357" left="364" laneChangedFrom="0" laneChangedTo="0" teleported="1"/>
        <edge id="-1149582046#3" sampledSeconds="3994.93" traveltime="139.30" overlapTraveltime="139.57" density="0.55" laneDensity="0.27" occupancy="0.12" waitingTime="0.00" timeLoss="202.68" speed="14.51" speedRelative="0.52" departed="0" arrived="28" entered="29" left="0" laneChangedFrom="6" laneChangedTo="7"/>
        <edge id="-1270367191#1" sampledSeconds="7461.52" traveltime="26.29" overlapTraveltime="27.31" density="8.20" laneDensity="8.20" occupancy="3.63" waitingTime="195.00" timeLoss="2639.90" speed="9.42" speedRelative="0.34" departed="13" arrived="5" entered="269" left="277" laneChangedFrom="0" laneChangedTo="0" teleported="4"/>
        <edge id="-1270367191#2" sampledSeconds="1703.62" traveltime="1.56" overlapTraveltime="4.94" density="115.14" laneDensity="115.14" occupancy="22.90" waitingTime="1105.00" timeLoss="1434.04" speed="1.81" speedRelative="0.07" departed="30" arrived="12" entered="380" left="398" laneChangedFrom="0" laneChangedTo="0" teleported="7"/>
        <edge id="-1307054560#0" sampledSeconds="12709.76" traveltime="34.56" overlapTraveltime="37.70" density="125.60" laneDensity="125.60" occupancy="53.64" waitingTime="9486.78" timeLoss="11744.59" speed="0.87" speedRelative="0.03" departed="16" arrived="8" entered="408" left="414" laneChangedFrom="0" laneChangedTo="0" teleported="101"/>
        <edge id="-1307054560#1" sampledSeconds="9559.54" traveltime="21.75" overlapTraveltime="25.24" density="51.96" laneDensity="51.96" occupancy="26.52" waitingTime="4811.67" timeLoss="7880.87" speed="2.26" speedRelative="0.08" departed="19" arrived="7" entered="403" left="415" laneChangedFrom="0" laneChangedTo="0" teleported="40"/>
        <edge id="-1307054560#2" sampledSeconds="7560.51" traveltime="16.77" overlapTraveltime="18.62" density="19.96" laneDensity="19.96" occupancy="9.03" waitingTime="2076.00" timeLoss="4158.15" speed="5.92" speedRelative="0.21" departed="20" arrived="10" entered="401" left="410" laneChangedFrom="0" laneChangedTo="0" teleported="11"/>
        <edge id="-1307054560#3" sampledSeconds="4164.36" traveltime="9.36" overlapTraveltime="9.77" density="10.85" laneDensity="10.85" occupancy="3.45" waitingTime="51.00" timeLoss="636.78" speed="11.26" speedRelative="0.41" departed="18" arrived="10" entered="413" left="421" laneChangedFrom="0" laneChangedTo="0" teleported="1"/>
        <edge id="-1307054560#4" sampledSeconds="4405.72" traveltime="9.95" overlapTraveltime="10.22" density="10.42" laneDensity="10.42" occupancy="3.22" waitingTime="4.00" timeLoss="505.21" speed="11.81" speedRelative="0.43" departed="22" arrived="9" entered="417" left="429" laneChangedFrom="0" laneChangedTo="0"/>
        <edge id="-1307054560#5" sampledSeconds="4892.78" traveltime="11.27" overlapTraveltime="11.56" density="10.96" laneDensity="10.96" occupancy="3.70" waitingTime="2.00" timeLoss="887.64" speed="11.03" speedRelative="0.40" departed="19" arrived="9" entered="421" left="430" laneChangedFrom="0" laneChangedTo="0" teleported="1"/>
        <edge id="-152227686#0" sampledSeconds="1402.02" traveltime="4.90" overlapTraveltime="5.29" density="7.01" laneDensity="7.01" occupancy="2.66" waitingTime="0.00" timeLoss="172.30" speed="11.32" speedRelative="0.81" departed="24" arrived="16" entered="252" left="259" laneChangedFrom="0" laneChangedTo="0"/>
        <edge id="-152227686#1" sampledSeconds="683.43" traveltime="2.27" overlapTraveltime="2.73" density="9.56" laneDensity="9.56" occupancy="3.19" waitingTime="0.00" timeLoss="201.99" speed="8.89" speedRelative="0.64" departed="21" arrived="16" entered="243" left="248" laneChangedFrom="0" laneChangedTo="0"/>
        <edge id="-152227686#2" sampledSeconds="104.85" traveltime="0.64" overlapTraveltime="2.14" density="7.26" laneDensity="7.26" occupancy="0.87" waitingTime="51.00" timeLoss="71.85" speed="3.43" speedRelative="0.25" departed="19" arrived="10" entered="28" left="37" laneChangedFrom="0" laneChangedTo="0"/>
        <edge id="-152227686#6" sampledSeconds="640.79" traveltime="23.43" overlapTraveltime="23.83" density="0.62" laneDensity="0.62" occupancy="0.28" waitingTime="0.00" timeLoss="45.94" speed="12.32" speedRelative="0.89" departed="14" arrived="15" entered="21" left="20" laneChangedFrom="0" laneChangedTo="0"/>
        <edge id="-152227697#2" sampledSeconds="174.55" traveltime="19.20" overlapTraveltime="19.39" density="0.22" laneDensity="0.22" occupancy="0.06" waitingTime="0.00" timeLoss="14.30" speed="11.53" speedRelative="0.52" departed="0" arrived="9" entered="9" left="0" laneChangedFrom="0" laneChangedTo="0"/>
        <edge id="-152227697#3" sampledSeconds="405.12" traveltime="0.95" overlapTraveltime="2.05" density="32.62" laneDensity="32.62" occupancy="6.64" waitingTime="44.00" timeLoss="190.81" speed="4.20" speedRelative="0.19" departed="21" arrived="14" entered="213" left="215" laneChangedFrom="0" laneChangedTo="0"/>
        <edge id="-155315678#4" sampledSeconds="35774.10" traveltime="117.37" overlapTraveltime="118.82" density="15.35" laneDensity="15.35" occupancy="8.76" waitingTime="13824.00" timeLoss="24096.04" speed="5.50" speedRelative="0.25" departed="13" arrived="21" entered="308" left="282" laneChangedFrom="0" laneChangedTo="0" teleported="72"/>
        <edge id="-155315678#5" sampledSeconds="9893.44" traveltime="43.65" overlapTraveltime="45.35" density="10.19" laneDensity="10.19" occupancy="3.81" waitingTime="3039.00" timeLoss="4946.95" speed="6.03" speedRelative="0.27" departed="20" arrived="11" entered="217" left="222" laneChangedFrom="0" laneChangedTo="0" teleported="18"/>
        <edge id="-155315680#1" sampledSeconds="804.94" traveltime="9.77" overlapTraveltime="11.23" density="2.24" laneDensity="2.24" occupancy="0.92" waitingTime="46.00" timeLoss="199.86" speed="9.28" speedRelative="0.67" departed="20" arrived="9" entered="63" left="74" laneChangedFrom="0" laneChangedTo="0"/>
        <edge id="-155315682" sampledSeconds="1720.38" traveltime="11.52" overlapTraveltime="12.24" density="4.67" laneDensity="4.67" occupancy="1.73" waitingTime="34.00" timeLoss="475.06" speed="8.69" speedRelative="0.63" departed="22" arrived="23" entered="129" left="126" laneChangedFrom="0" laneChangedTo="0" teleported="1"/>
        <edge id="-155315683" sampledSeconds="3075.02" traveltime="36.37" overlapTraveltime="37.76" density="4.23" laneDensity="4.23" occupancy="2.32" waitingTime="1198.00" timeLoss="1729.88" speed="5.50" speedRelative="0.40" departed="20" arrived="14" entered="74" left="80" laneChangedFrom="0" laneChangedTo="0" teleported="7"/>
        <edge id="-155315688#0" sampledSeconds="495.20" traveltime="8.64" overlapTraveltime="9.75" density="2.07" laneDensity="2.07" occupancy="1.09" waitingTime="60.00" timeLoss="168.97" speed="7.42" speedRelative="0.53" departed="16" arrived="17" entered="44" left="42" laneChangedFrom="0" laneChangedTo="0" teleported="1"/>
        <edge id="-155315688#1" sampledSeconds="1161.77" traveltime="8.99" overlapTraveltime="9.81" density="3.50" laneDensity="3.50" occupancy="1.50" waitingTime="3.00" timeLoss="230.09" speed="9.90" speedRelative="0.71" departed="12" arrived="10" entered="114" left="115" laneChangedFrom="0" laneChangedTo="0" teleported="1"/>
        <edge id="-155315693#2" sampledSeconds="3321.37" traveltime="41.32" overlapTraveltime="42.22" density="3.36" laneDensity="3.36" occupancy="1.30" waitingTime="1047.00" timeLoss="1444.92" speed="6.59" speedRelative="0.47" departed="20" arrived="19" entered="68" left="69" laneChangedFrom="0" laneChangedTo="0" teleported="4"/>
        <edge id="-155315693#8" sampledSeconds="549.65" traveltime="35.54" overlapTraveltime="36.65" density="0.37" laneDensity="0.37" occupancy="0.16" waitingTime="2.00" timeLoss="44.43" speed="11.31" speedRelative="0.81" departed="29" arrived="0" entered="0" left="29" laneChangedFrom="0" laneChangedTo="0"/>
        <edge id="-155315694#2" sampledSeconds="5686.34" traveltime="40.98" overlapTraveltime="42.24" density="7.09" laneDensity="7.09" occupancy="3.16" waitingTime="1830.00" timeLoss="3002.31" speed="5.38" speedRelative="0.39" departed="21" arrived="22" entered="126" left="124" laneChangedFrom="0" laneChangedTo="0" teleported="21"/>
        <edge id="-155315694#3" sampledSeconds="417.94" traveltime="4.65" overlapTraveltime="5.21" density="2.83" laneDensity="2.83" occupancy="1.13" waitingTime="0.00" timeLoss="115.88" speed="8.77" speedRelative="0.63" departed="20" arrived="22" entered="69" left="67" laneChangedFrom="0" laneChangedTo="0"/>
        <edge id="-155315695#0" sampledSeconds="18322.46" traveltime="107.40" overlapTraveltime="110.02" density="49.16" laneDensity="49.16" occupancy="24.02" waitingTime="12077.00" timeLoss="16789.91" speed="0.99" speedRelative="0.07" departed="24" arrived="7" entered="211" left="209" laneChangedFrom="0" laneChangedTo="0" teleported="80"/>
        <edge id="-155315695#1" sampledSeconds="1137.82" traveltime="9.80" overlapTraveltime="10.74" density="7.69" laneDensity="7.69" occupancy="4.13" waitingTime="361.00" timeLoss="750.20" speed="4.37" speedRelative="0.31" departed="25" arrived="10" entered="100" left="114" laneChangedFrom="0" laneChangedTo="0" teleported="5"/>
        <edge id="-155315695#3" sampledSeconds="2345.81" traveltime="22.83" overlapTraveltime="23.91" density="2.67" laneDensity="2.67" occupancy="1.13" waitingTime="0.00" timeLoss="399.29" speed="10.41" speedRelative="0.75" departed="20" arrived="15" entered="88" left="91" laneChangedFrom="0" laneChangedTo="0"/>
        <edge id="-155315695#4" sampledSeconds="684.70" traveltime="6.00" overlapTraveltime="6.83" density="3.72" laneDensity="3.72" occupancy="1.42" waitingTime="24.00" timeLoss="225.04" speed="8.13" speedRelative="0.59" departed="23" arrived="17" entered="90" left="96" laneChangedFrom="0" laneChangedTo="0"/>
        <edge id="-155315711" sampledSeconds="4954.62" traveltime="52.76" overlapTraveltime="55.10" density="17.12" laneDensity="17.12" occupancy="9.71" waitingTime="3300.00" timeLoss="4338.49" speed="1.56" speedRelative="0.11" departed="17" arrived="9" entered="100" left="95" laneChangedFrom="0" laneChangedTo="0" teleported="27"/>
        <edge id="-155315719#0" sampledSeconds="8257.21" traveltime="46.53" overlapTraveltime="47.28" density="4.89" laneDensity="4.89" occupancy="1.95" waitingTime="308.00" timeLoss="3059.39" speed="10.00" speedRelative="0.45" departed="30" arrived="14" entered="164" left="167" laneChangedFrom="0" laneChangedTo="0" teleported="6"/>
        <edge id="-155315719#1" sampledSeconds="5674.17" traveltime="16.64" overlapTraveltime="17.78" density="9.87" laneDensity="9.87" occupancy="4.12" waitingTime="298.00" timeLoss="2307.90" speed="9.23" speedRelative="0.42" departed="15" arrived="15" entered="313" left="307" laneChangedFrom="0" laneChangedTo="0" teleported="7"/>
        <edge id="-155315719#15" sampledSeconds="694.73" traveltime="60.52" overlapTraveltime="60.82" density="0.22" laneDensity="0.22" occupancy="0.08" waitingTime="0.00" timeLoss="33.94" speed="14.52" speedRelative="0.65" departed="21" arrived="0" entered="0" left="21" laneChangedFrom="0" laneChangedTo="0"/>
        <edge id="-155315719#2" sampledSeconds="3046.42" traveltime="9.56" overlapTraveltime="9.96" density="7.80" laneDensity="7.80" occupancy="3.19" waitingTime="3.00" timeLoss="883.94" speed="11.33" speedRelative="0.51" departed="23" arrived="16" entered="295" left="301" laneChangedFrom="0" laneChangedTo="0"/>
        <edge id="-155315719#8" sampledSeconds="5079.27" traveltime="31.49" overlapTraveltime="31.92" density="3.83" laneDensity="3.83" occupancy="1.69" waitingTime="0.00" timeLoss="1353.32" speed="11.68" speedRelative="0.53" departed="19" arrived="15" entered="150" left="149" laneChangedFrom="0" laneChangedTo="0"/>
        <edge id="-155775198#0" sampledSeconds="10296.06" traveltime="51.23" overlapTraveltime="52.09" density="7.56" laneDensity="7.56" occupancy="2.38" waitingTime="2113.00" timeLoss="3771.32" speed="7.32" speedRelative="0.26" departed="17" arrived="18" entered="189" left="188" laneChangedFrom="0" laneChangedTo="0" teleported="21"/>
        <edge id="-155775198#3" sampledSeconds="16318.44" traveltime="54.51" overlapTraveltime="55.37" density="11.54" laneDensity="11.54" occupancy="3.89" waitingTime="3734.00" timeLoss="6410.92" speed="7.15" speedRelative="0.26" departed="22" arrived="19" entered="287" left="290" laneChangedFrom="0" laneChangedTo="0" teleported="18"/>
        <edge id="-155775198#4" sampledSeconds="5595.32" traveltime="19.25" overlapTraveltime="20.53" density="49.12" laneDensity="49.12" occupancy="17.98" waitingTime="3735.00" timeLoss="4774.29" speed="1.73" speedRelative="0.06" departed="22" arrived="9" entered="270" left="281" laneChangedFrom="0" laneChangedTo="0" teleported="17"/>
        <edge id="-155775198#5" sampledSeconds="2375.07" traveltime="3.44" overlapTraveltime="6.30" density="61.54" laneDensity="61.54" occupancy="23.99" waitingTime="1068.00" timeLoss="1845.64" speed="2.72" speedRelative="0.10" departed="14" arrived="10" entered="440" left="444" laneChangedFrom="0" laneChangedTo="0" teleported="2"/>
        <edge id="-155775198#6" sampledSeconds="9522.59" traveltime="26.39" overlapTraveltime="27.57" density="13.35" laneDensity="13.35" occupancy="6.71" waitingTime="2081.00" timeLoss="4659.73" speed="7.38" speedRelative="0.27" departed="21" arrived="10" entered="336" left="346" laneChangedFrom="0" laneChangedTo="0" teleported="13"/>
        <edge id="-155775200#1" sampledSeconds="301886.36" traveltime="407.98" overlapTraveltime="410.34" density="113.21" laneDensity="113.21" occupancy="59.21" waitingTime="175997.00" timeLoss="261880.90" speed="1.82" speedRelative="0.07" departed="14" arrived="7" entered="819" left="724" laneChangedFrom="0" laneChangedTo="0" teleported="326"/>
        <edge id="-163652291" sampledSeconds="5466.88" traveltime="38.77" overlapTraveltime="41.29" density="42.22" laneDensity="42.22" occupancy="19.47" waitingTime="4272.00" timeLoss="5069.00" speed="0.99" speedRelative="0.04" departed="24" arrived="21" entered="130" left="131" laneChangedFrom="0" laneChangedTo="0" teleported="44"/>
        <edge id="-205021436#0" sampledSeconds="200121.04" traveltime="314.77" overlapTraveltime="318.23" density="99.28" laneDensity="99.28" occupancy="54.98" waitingTime="97535.12" timeLoss="175637.90" speed="1.78" speedRelative="0.06" departed="16" arrived="5" entered="835" left="750" laneChangedFrom="0" laneChangedTo="0" teleported="327"/>
        <edge id="-205021436#1" sampledSeconds="13326.94" traveltime="18.97" overlapTraveltime="20.35" density="36.00" laneDensity="36.00" occupancy="18.01" waitingTime="4354.30" timeLoss="8670.45" speed="5.31" speedRelative="0.19" departed="17" arrived="8" entered="664" left="672" laneChangedFrom="0" laneChangedTo="0" teleported="43"/>
        <edge id="-271412010" sampledSeconds="5845.52" traveltime="37.76" overlapTraveltime="38.86" density="5.02" laneDensity="5.02" occupancy="2.27" waitingTime="1125.00" timeLoss="2119.99" speed="8.44" speedRelative="0.61" departed="17" arrived="13" entered="143" left="145" laneChangedFrom="0" laneChangedTo="0" teleported="3"/>
        <edge id="-31905181#0" sampledSeconds="8906.49" traveltime="28.39" overlapTraveltime="29.63" density="16.26" laneDensity="16.26" occupancy="7.57" waitingTime="1911.00" timeLoss="4987.82" speed="5.30" speedRelative="0.38" departed="26" arrived="10" entered="293" left="309" laneChangedFrom="0" laneChangedTo="0" teleported="34"/>
        <edge id="-31905181#3" sampledSeconds="9448.82" traveltime="36.20" overlapTraveltime="36.68" density="7.81" laneDensity="7.81" occupancy="3.15" waitingTime="0.00" timeLoss="2505.27" speed="9.27" speedRelative="0.67" departed="28" arrived="14" entered="246" left="257" laneChangedFrom="0" laneChangedTo="0"/>
        <edge id="-31905190#0" sampledSeconds="590.53" traveltime="9.32" overlapTraveltime="10.12" density="1.77" laneDensity="1.77" occupancy="0.69" waitingTime="6.00" timeLoss="103.82" speed="9.59" speedRelative="0.69" departed="18" arrived="14" entered="50" left="54" laneChangedFrom="0" laneChangedTo="0"/>
        <edge id="-31905190#3" sampledSeconds="1388.76" traveltime="15.85" overlapTraveltime="16.68" density="2.17" laneDensity="2.17" occupancy="0.87" waitingTime="12.00" timeLoss="140.73" speed="10.93" speedRelative="0.79" departed="26" arrived="14" entered="70" left="82" laneChangedFrom="0" laneChangedTo="0"/>
        <edge id="-31905195#1" sampledSeconds="637.93" traveltime="8.79" overlapTraveltime="9.58" density="2.27" laneDensity="2.27" occupancy="0.86" waitingTime="8.00" timeLoss="153.99" speed="8.59" speedRelative="0.62" departed="22" arrived="19" entered="53" left="56" laneChangedFrom="0" laneChangedTo="0"/>
        <edge id="-31905195#2" sampledSeconds="1232.67" traveltime="17.08" overlapTraveltime="17.87" density="2.99" laneDensity="2.99" occupancy="1.07" waitingTime="295.00" timeLoss="512.18" speed="6.62" speedRelative="0.48" departed="17" arrived="13" entered="62" left="66" laneChangedFrom="0" laneChangedTo="0" teleported="4"/>
        <edge id="-31905201#2" sampledSeconds="5494.89" traveltime="28.27" overlapTraveltime="29.40" density="4.03" laneDensity="4.03" occupancy="1.55" waitingTime="200.00" timeLoss="679.90" speed="13.03" speedRelative="0.47" departed="17" arrived="17" entered="179" left="177" laneChangedFrom="0" laneChangedTo="0"/>
        <edge id="-31905214" sampledSeconds="10310.29" traveltime="35.05" overlapTraveltime="36.37" density="24.08" laneDensity="24.08" occupancy="11.17" waitingTime="6189.00" timeLoss="8017.24" speed="3.40" speedRelative="0.12" departed="23" arrived="16" entered="280" left="278" laneChangedFrom="0" laneChangedTo="0" teleported="61"/>
        <edge id="-322191552" sampledSeconds="80211.83" traveltime="82.20" overlapTraveltime="83.16" density="62.96" laneDensity="62.96" occupancy="27.50" waitingTime="9393.00" timeLoss="58444.06" speed="4.31" speedRelative="0.16" departed="22" arrived="13" entered="1086" left="1049" laneChangedFrom="0" laneChangedTo="0" teleported="186"/>
        <edge id="-406038877" sampledSeconds="1887.13" traveltime="85.50" overlapTraveltime="86.50" density="1.34" laneDensity="1.34" occupancy="0.61" waitingTime="0.00" timeLoss="216.18" speed="4.58" speedRelative="0.82" departed="0" arrived="22" entered="22" left="0" laneChangedFrom="0" laneChangedTo="0"/>
        <edge id="-442885101#0" sampledSeconds="31050.85" traveltime="47.63" overlapTraveltime="48.98" density="66.24" laneDensity="33.12" occupancy="15.59" waitingTime="17519.00" timeLoss="25421.94" speed="2.76" speedRelative="0.10" departed="39" arrived="19" entered="656" left="652" laneChangedFrom="431" laneChangedTo="431" teleported="242"/>