<?xml version="1.0" encoding="UTF-8"?>

<!-- generated on 2025-08-22 17:52:15 by Eclipse SUMO GUI Version 1.24.0
<sumoConfiguration xmlns:xsi="http://www.w3.org/2001/XMLSchema-instance" xsi:noNamespaceSchemaLocation="http://sumo.dlr.de/xsd/sumoConfiguration.xsd">

    <input>
        <net-file value="src\PhuQuoc/phuquoc.net.xml"/>
        <route-files value="src\PhuQuoc/phuquoc.rou.xml,src\PhuQuoc/phuquoc-demo.rou.xml"/>
        <additional-files value="src\PhuQuoc/detector.add.xml"/>
    </input>

    <output>
        <tripinfo-output value="src\PhuQuoc/../../output/tripinfo_baseline.xml"/>
        <vehroute-output value="src\PhuQuoc/../../output/vehroutes_baseline.xml"/>
        <edgedata-output value="src\PhuQuoc/../../output/edgedata_baseline.xml"/>
    </output>

    <time>
        <step-length value="1"/>
    </time>

    <processing>
        <lateral-resolution value="0.5"/>
        <ignore-route-errors value="true"/>
        <time-to-teleport value="50"/>
        <tls.actuated.jam-threshold value="30"/>
    </processing>

    <routing>
        <device.rerouting.adaptation-steps value="18"/>
        <device.rerouting.adaptation-interval value="10"/>
    </routing>

    <report>
        <verbose value="true"/>
        <duration-log.statistics value="true"/>
        <no-step-log value="true"/>
    </report>

    <traci_server>
        <remote-port value="8814"/>
    </traci_server>

    <gui_only>
        <gui-settings-file value="src\PhuQuoc/phuquoc.view.xml"/>
        <start value="true"/>
        <delay value="0"/>
    </gui_only>

</sumoConfiguration>
-->

<tripinfos xmlns:xsi="http://www.w3.org/2001/XMLSchema-instance" xsi:noNamespaceSchemaLocation="http://sumo.dlr.de/xsd/tripinfo_file.xsd">
    <tripinfo id="62" depart="23.00" departLane="721131967_0" departPos="23.07" departPosLat="0.00" departSpeed="13.53" departDelay="0.68" arrival="40.00" arrivalLane="721131960#4_1" arrivalPos="53.63" arrivalPosLat="0.00" arrivalSpeed="15.09" duration="17.00" routeLength="149.41" waitingTime="0.00" waitingCount="0" stopTime="0.00" timeLoss="5.61" rerouteNo="1" devices="vehroute_62 tripinfo_62 routing_62" vType="car" speedFactor="0.97" vaporized=""/>
    <tripinfo id="21" depart="8.00" departLane="-723990057#6_0" departPos="23.77" departPosLat="0.00" departSpeed="16.67" departDelay="0.44" arrival="47.00" arrivalLane="100954129#5_0" arrivalPos="156.84" arrivalPosLat="0.00" arrivalSpeed="13.76" duration="39.00" routeLength="465.00" waitingTime="0.00" waitingCount="0" stopTime="0.00" timeLoss="7.94" rerouteNo="1" devices="vehroute_21 tripinfo_21 routing_21" vType="motorbike" speedFactor="1.11" vaporized=""/>
    <tripinfo id="84" depart="31.00" departLane="721131946#9_2" departPos="75.22" departPosLat="0.00" departSpeed="20.47" departDelay="0.76" arrival="51.00" arrivalLane="-721131940_0" arrivalPos="0.22" arrivalPosLat="0.70" arrivalSpeed="5.99" duration="20.00" routeLength="210.95" waitingTime="0.00" waitingCount="0" stopTime="0.00" timeLoss="7.78" rerouteNo="1" devices="vehroute_84 tripinfo_84 routing_84" vType="car" speedFactor="1.05" vaporized=""/>
    <tripinfo id="73" depart="27.00" departLane="152227686#1_0" departPos="3.59" departPosLat="0.00" departSpeed="15.24" departDelay="0.72" arrival="60.00" arrivalLane="155315711_0" arrivalPos="84.56" arrivalPosLat="0.70" arrivalSpeed="14.50" duration="33.00" routeLength="354.97" waitingTime="0.00" waitingCount="0" stopTime="0.00" timeLoss="9.69" rerouteNo="1" devices="vehroute_73 tripinfo_73 routing_73" vType="car" speedFactor="1.10" vaporized=""/>
    <tripinfo id="15" depart="6.00" departLane="721131946#9_2" departPos="34.01" departPosLat="0.00" departSpeed="19.44" departDelay="0.60" arrival="64.00" arrivalLane="721131937#8_1" arrivalPos="350.24" arrivalPosLat="-0.00" arrivalSpeed="19.36" duration="58.00" routeLength="888.94" waitingTime="0.00" waitingCount="0" stopTime="0.00" timeLoss="10.02" rerouteNo="1" devices="vehroute_15 tripinfo_15 routing_15" vType="truck" speedFactor="0.79" vaporized=""/>
    <tripinfo id="125" depart="45.00" departLane="-152227686#6_0" departPos="158.69" departPosLat="0.00" departSpeed="15.63" departDelay="0.00" arrival="69.00" arrivalLane="-722464598_0" arrivalPos="56.44" arrivalPosLat="0.00" arrivalSpeed="14.38" duration="24.00" routeLength="318.40" waitingTime="0.00" waitingCount="0" stopTime="0.00" timeLoss="2.83" rerouteNo="1" devices="vehroute_125 tripinfo_125 routing_125" vType="car" speedFactor="1.13" vaporized=""/>
    <tripinfo id="24" depart="9.00" departLane="721126897#14_1" departPos="97.89" departPosLat="0.00" departSpeed="16.67" departDelay="0.36" arrival="77.00" arrivalLane="1149579536#7_0" arrivalPos="84.51" arrivalPosLat="0.00" arrivalSpeed="16.14" duration="68.00" routeLength="1052.29" waitingTime="0.00" waitingCount="0" stopTime="0.00" timeLoss="4.33" rerouteNo="1" devices="vehroute_24 tripinfo_24 routing_24" vType="motorbike" speedFactor="0.98" vaporized=""/>
    <tripinfo id="40" depart="15.00" departLane="442885101#0_0" departPos="124.68" departPosLat="0.00" departSpeed="5.54" departDelay="0.60" arrival="77.00" arrivalLane="722464597#0_0" arrivalPos="57.54" arrivalPosLat="-1.27" arrivalSpeed="5.28" duration="62.00" routeLength="323.95" waitingTime="0.00" waitingCount="0" stopTime="0.00" timeLoss="3.26" rerouteNo="1" devices="vehroute_40 tripinfo_40 routing_40" vType="DEFAULT_BIKETYPE" speedFactor="1.00" vaporized=""/>
    <tripinfo id="13" depart="5.00" departLane="-155315694#2_0" departPos="100.70" departPosLat="0.00" departSpeed="12.64" departDelay="0.32" arrival="81.00" arrivalLane="-155315693#2_0" arrivalPos="274.24" arrivalPosLat="0.00" arrivalSpeed="12.56" duration="76.00" routeLength="760.46" waitingTime="0.00" waitingCount="0" stopTime="0.00" timeLoss="13.04" rerouteNo="1" devices="vehroute_13 tripinfo_13 routing_13" vType="truck" speedFactor="0.91" vaporized=""/>
    <tripinfo id="163" depart="59.00" departLane="721131963#3_1" departPos="48.47" departPosLat="0.00" departSpeed="19.44" departDelay="0.32" arrival="83.00" arrivalLane="721131963#3_1" arrivalPos="496.13" arrivalPosLat="-0.80" arrivalSpeed="19.26" duration="24.00" routeLength="447.66" waitingTime="0.00" waitingCount="0" stopTime="0.00" timeLoss="0.23" rerouteNo="1" devices="vehroute_163 tripinfo_163 routing_163" vType="truck" speedFactor="0.94" vaporized=""/>
    <tripinfo id="10" depart="4.00" departLane="721131946#8_2" departPos="1.62" departPosLat="0.00" departSpeed="16.67" departDelay="0.40" arrival="100.00" arrivalLane="721131937#10_0" arrivalPos="532.93" arrivalPosLat="0.00" arrivalSpeed="16.53" duration="96.00" routeLength="1477.85" waitingTime="0.00" waitingCount="0" stopTime="0.00" timeLoss="5.13" rerouteNo="1" devices="vehroute_10 tripinfo_10 routing_10" vType="bus" speedFactor="0.99" vaporized=""/>
    <tripinfo id="226" depart="82.00" departLane="-155315678#5_0" departPos="239.41" departPosLat="0.00" departSpeed="14.32" departDelay="0.64" arrival="101.00" arrivalLane="100954129#2_0" arrivalPos="67.78" arrivalPosLat="0.00" arrivalSpeed="12.52" duration="19.00" routeLength="107.77" waitingTime="1.00" waitingCount="1" stopTime="0.00" timeLoss="9.22" rerouteNo="0" devices="vehroute_226 tripinfo_226 routing_226" vType="motorbike" speedFactor="0.90" vaporized=""/>
    <tripinfo id="180" depart="65.00" departLane="-100954129#0_0" departPos="43.46" departPosLat="0.00" departSpeed="9.56" departDelay="0.20" arrival="105.00" arrivalLane="723990057#5_0" arrivalPos="39.97" arrivalPosLat="0.00" arrivalSpeed="14.76" duration="40.00" routeLength="506.37" waitingTime="0.00" waitingCount="0" stopTime="0.00" timeLoss="8.50" rerouteNo="1" devices="vehroute_180 tripinfo_180 routing_180" vType="motorbike" speedFactor="1.33" vaporized=""/>
    <tripinfo id="54" depart="20.00" departLane="155315680#0_0" departPos="48.96" departPosLat="0.00" departSpeed="11.76" departDelay="0.56" arrival="106.00" arrivalLane="-482169086#8_0" arrivalPos="1330.21" arrivalPosLat="0.00" arrivalSpeed="22.20" duration="86.00" routeLength="1399.87" waitingTime="8.00" waitingCount="1" stopTime="0.00" timeLoss="19.47" rerouteNo="0" devices="vehroute_54 tripinfo_54 routing_54" vType="car" speedFactor="0.85" vaporized=""/>
    <tripinfo id="76" depart="28.00" departLane="-723990057#7_0" departPos="30.17" departPosLat="0.00" departSpeed="22.22" departDelay="0.64" arrival="109.00" arrivalLane="-723990054_0" arrivalPos="61.78" arrivalPosLat="0.00" arrivalSpeed="13.08" duration="81.00" routeLength="1188.84" waitingTime="10.00" waitingCount="1" stopTime="0.00" timeLoss="25.13" rerouteNo="1" devices="vehroute_76 tripinfo_76 routing_76" vType="car" speedFactor="1.03" vaporized=""/>
    <tripinfo id="69" depart="26.00" departLane="1270367191#2_0" departPos="1.39" departPosLat="0.00" departSpeed="4.39" departDelay="1.16" arrival="113.00" arrivalLane="-722464597#2_0" arrivalPos="28.36" arrivalPosLat="0.00" arrivalSpeed="8.60" duration="87.00" routeLength="446.73" waitingTime="0.00" waitingCount="0" stopTime="0.00" timeLoss="55.24" rerouteNo="1" devices="vehroute_69 tripinfo_69 routing_69" vType="bus" speedFactor="0.84" vaporized=""/>
    <tripinfo id="129" depart="47.00" departLane="591704635#3_0" departPos="735.09" departPosLat="0.00" departSpeed="22.22" departDelay="0.56" arrival="113.00" arrivalLane="857958820#0_1" arrivalPos="611.44" arrivalPosLat="0.00" arrivalSpeed="21.42" duration="66.00" routeLength="979.10" waitingTime="0.00" waitingCount="0" stopTime="0.00" timeLoss="16.96" rerouteNo="1" devices="vehroute_129 tripinfo_129 routing_129" vType="car" speedFactor="0.91" vaporized=""/>
    <tripinfo id="34" depart="13.00" departLane="1119166765#1_2" departPos="353.92" departPosLat="0.00" departSpeed="12.24" departDelay="0.76" arrival="115.00" arrivalLane="-851342124_0" arrivalPos="1.47" arrivalPosLat="0.70" arrivalSpeed="6.35" duration="102.00" routeLength="1987.22" waitingTime="0.00" waitingCount="0" stopTime="0.00" timeLoss="9.41" rerouteNo="1" devices="vehroute_34 tripinfo_34 routing_34" vType="car" speedFactor="1.07" vaporized=""/>
    <tripinfo id="240" depart="87.00" departLane="205021436#1_0" departPos="2.74" departPosLat="0.00" departSpeed="16.67" departDelay="0.60" arrival="120.00" arrivalLane="591704635#0_0" arrivalPos="394.13" arrivalPosLat="0.00" arrivalSpeed="15.17" duration="33.00" routeLength="518.48" waitingTime="0.00" waitingCount="0" stopTime="0.00" timeLoss="1.76" rerouteNo="0" devices="vehroute_240 tripinfo_240 routing_240" vType="motorbike" speedFactor="0.80" vaporized=""/>
    <tripinfo id="333" depart="120.00" departLane="-722464597#2_0" departPos="12.87" departPosLat="0.00" departSpeed="14.75" departDelay="0.12" arrival="122.00" arrivalLane="-722464597#2_0" arrivalPos="28.36" arrivalPosLat="0.00" arrivalSpeed="14.64" duration="2.00" routeLength="15.49" waitingTime="0.00" waitingCount="0" stopTime="0.00" timeLoss="0.01" rerouteNo="1" devices="vehroute_333 tripinfo_333 routing_333" vType="truck" speedFactor="1.06" vaporized=""/>
    <tripinfo id="263" depart="95.00" departLane="721131937#1_2" departPos="85.98" departPosLat="0.00" departSpeed="16.67" departDelay="0.32" arrival="130.00" arrivalLane="721131946#15_0" arrivalPos="21.75" arrivalPosLat="0.00" arrivalSpeed="1.53" duration="35.00" routeLength="470.28" waitingTime="0.00" waitingCount="0" stopTime="0.00" timeLoss="6.10" rerouteNo="1" devices="vehroute_263 tripinfo_263 routing_263" vType="motorbike" speedFactor="1.30" vaporized="teleport"/>
    <tripinfo id="85" depart="31.00" departLane="-155315695#0_0" departPos="43.19" departPosLat="0.00" departSpeed="12.87" departDelay="0.40" arrival="131.00" arrivalLane="152227686#1_0" arrivalPos="19.86" arrivalPosLat="0.00" arrivalSpeed="8.87" duration="100.00" routeLength="628.75" waitingTime="3.00" waitingCount="1" stopTime="0.00" timeLoss="57.99" rerouteNo="1" devices="vehroute_85 tripinfo_85 routing_85" vType="motorbike" speedFactor="1.15" vaporized=""/>
    <tripinfo id="146" depart="53.00" departLane="722464597#2_0" departPos="13.82" departPosLat="0.00" departSpeed="16.67" departDelay="0.44" arrival="135.00" arrivalLane="31905181#0_0" arrivalPos="153.61" arrivalPosLat="0.00" arrivalSpeed="15.02" duration="82.00" routeLength="1081.89" waitingTime="0.00" waitingCount="0" stopTime="0.00" timeLoss="14.38" rerouteNo="1" devices="vehroute_146 tripinfo_146 routing_146" vType="motorbike" speedFactor="1.38" vaporized=""/>
    <tripinfo id="241" depart="87.00" departLane="-723990057#2_0" departPos="91.53" departPosLat="0.00" departSpeed="22.22" departDelay="0.24" arrival="138.00" arrivalLane="-723990054_0" arrivalPos="61.78" arrivalPosLat="0.00" arrivalSpeed="14.02" duration="51.00" routeLength="833.66" waitingTime="0.00" waitingCount="0" stopTime="0.00" timeLoss="10.43" rerouteNo="1" devices="vehroute_241 tripinfo_241 routing_241" vType="car" speedFactor="1.05" vaporized=""/>
    <tripinfo id="243" depart="88.00" departLane="1149578943_0" departPos="0.89" departPosLat="0.00" departSpeed="1.35" departDelay="0.52" arrival="140.00" arrivalLane="721131934#6_0" arrivalPos="123.12" arrivalPosLat="0.00" arrivalSpeed="20.29" duration="52.00" routeLength="998.18" waitingTime="0.00" waitingCount="0" stopTime="0.00" timeLoss="6.15" rerouteNo="1" devices="vehroute_243 tripinfo_243 routing_243" vType="car" speedFactor="1.13" vaporized=""/>
    <tripinfo id="92" depart="34.00" departLane="1270367191#0_0" departPos="123.91" departPosLat="0.00" departSpeed="20.99" departDelay="0.88" arrival="141.00" arrivalLane="-934270764_0" arrivalPos="80.67" arrivalPosLat="0.00" arrivalSpeed="10.34" duration="107.00" routeLength="760.36" waitingTime="0.00" waitingCount="0" stopTime="0.00" timeLoss="54.96" rerouteNo="1" devices="vehroute_92 tripinfo_92 routing_92" vType="car" speedFactor="0.76" vaporized=""/>
    <tripinfo id="165" depart="60.00" departLane="152227691#13_1" departPos="42.59" departPosLat="0.00" departSpeed="22.22" departDelay="0.60" arrival="146.00" arrivalLane="1119166765#1_0" arrivalPos="369.98" arrivalPosLat="0.00" arrivalSpeed="20.42" duration="86.00" routeLength="1532.25" waitingTime="0.00" waitingCount="0" stopTime="0.00" timeLoss="16.39" rerouteNo="1" devices="vehroute_165 tripinfo_165 routing_165" vType="car" speedFactor="1.23" vaporized=""/>
    <tripinfo id="259" depart="94.00" departLane="724005155#9_0" departPos="149.98" departPosLat="0.00" departSpeed="13.14" departDelay="0.76" arrival="148.00" arrivalLane="-721131956_0" arrivalPos="1.91" arrivalPosLat="0.20" arrivalSpeed="5.22" duration="54.00" routeLength="693.28" waitingTime="0.00" waitingCount="0" stopTime="0.00" timeLoss="7.10" rerouteNo="1" devices="vehroute_259 tripinfo_259 routing_259" vType="motorbike" speedFactor="0.95" vaporized=""/>
    <tripinfo id="115" depart="42.00" departLane="722464592_0" departPos="182.55" departPosLat="0.00" departSpeed="22.22" departDelay="0.60" arrival="151.00" arrivalLane="-724005155#9_0" arrivalPos="155.18" arrivalPosLat="0.00" arrivalSpeed="13.06" duration="109.00" routeLength="1497.11" waitingTime="5.00" waitingCount="1" stopTime="0.00" timeLoss="16.04" rerouteNo="1" devices="vehroute_115 tripinfo_115 routing_115" vType="car" speedFactor="1.01" vaporized=""/>
    <tripinfo id="37" depart="16.00" departLane="722466950_0" departPos="1.08" departPosLat="0.00" departSpeed="3.38" departDelay="2.68" arrival="153.00" arrivalLane="152227691#4_0" arrivalPos="76.02" arrivalPosLat="0.50" arrivalSpeed="19.37" duration="137.00" routeLength="2042.39" waitingTime="0.00" waitingCount="0" stopTime="0.00" timeLoss="27.59" rerouteNo="1" devices="vehroute_37 tripinfo_37 routing_37" vType="truck" speedFactor="0.80" vaporized=""/>
    <tripinfo id="357" depart="129.00" departLane="721131934#1_1" departPos="70.57" departPosLat="0.00" departSpeed="22.22" departDelay="0.48" arrival="154.00" arrivalLane="-851342126_0" arrivalPos="1.16" arrivalPosLat="0.70" arrivalSpeed="5.53" duration="25.00" routeLength="447.97" waitingTime="0.00" waitingCount="0" stopTime="0.00" timeLoss="4.11" rerouteNo="1" devices="vehroute_357 tripinfo_357 routing_357" vType="car" speedFactor="1.03" vaporized=""/>
    <tripinfo id="375" depart="135.00" departLane="271412010_0" departPos="195.46" departPosLat="0.00" departSpeed="15.91" departDelay="0.00" arrival="155.00" arrivalLane="723990057#6_0" arrivalPos="46.34" arrivalPosLat="0.00" arrivalSpeed="15.51" duration="20.00" routeLength="240.10" waitingTime="0.00" waitingCount="0" stopTime="0.00" timeLoss="3.83" rerouteNo="1" devices="vehroute_375 tripinfo_375 routing_375" vType="motorbike" speedFactor="1.15" vaporized=""/>
    <tripinfo id="200" depart="72.00" departLane="721126897#13_2" departPos="53.18" departPosLat="0.00" departSpeed="16.67" departDelay="0.00" arrival="156.00" arrivalLane="1149578944_0" arrivalPos="0.33" arrivalPosLat="0.20" arrivalSpeed="4.24" duration="84.00" routeLength="1256.50" waitingTime="0.00" waitingCount="0" stopTime="0.00" timeLoss="6.97" rerouteNo="1" devices="vehroute_200 tripinfo_200 routing_200" vType="motorbike" speedFactor="1.29" vaporized=""/>
    <tripinfo id="43" depart="16.00" departLane="-155315693#8_0" departPos="234.35" departPosLat="0.00" departSpeed="13.62" departDelay="0.52" arrival="159.00" arrivalLane="-1149580110_0" arrivalPos="0.20" arrivalPosLat="0.70" arrivalSpeed="5.16" duration="143.00" routeLength="2208.87" waitingTime="0.00" waitingCount="0" stopTime="0.00" timeLoss="26.00" rerouteNo="1" devices="vehroute_43 tripinfo_43 routing_43" vType="car" speedFactor="0.98" vaporized=""/>
    <tripinfo id="134" depart="49.00" departLane="-155315719#0_0" departPos="158.89" departPosLat="0.00" departSpeed="16.67" departDelay="0.76" arrival="163.00" arrivalLane="31905190#1_0" arrivalPos="179.04" arrivalPosLat="0.00" arrivalSpeed="16.26" duration="114.00" routeLength="1326.22" waitingTime="0.00" waitingCount="0" stopTime="0.00" timeLoss="31.01" rerouteNo="1" devices="vehroute_134 tripinfo_134 routing_134" vType="motorbike" speedFactor="1.24" vaporized=""/>
    <tripinfo id="136" depart="49.00" departLane="721131937#13_2" departPos="454.62" departPosLat="0.00" departSpeed="16.67" departDelay="0.04" arrival="163.00" arrivalLane="-721131962_0" arrivalPos="0.20" arrivalPosLat="0.00" arrivalSpeed="7.88" duration="114.00" routeLength="1846.97" waitingTime="0.00" waitingCount="0" stopTime="0.00" timeLoss="2.13" rerouteNo="1" devices="vehroute_136 tripinfo_136 routing_136" vType="bus" speedFactor="0.85" vaporized=""/>
    <tripinfo id="41" depart="15.00" departLane="1149580107#2_0" departPos="31.97" departPosLat="0.00" departSpeed="16.67" departDelay="0.24" arrival="164.00" arrivalLane="-723990054_0" arrivalPos="61.78" arrivalPosLat="0.00" arrivalSpeed="13.86" duration="149.00" routeLength="2183.19" waitingTime="0.00" waitingCount="0" stopTime="0.00" timeLoss="16.52" rerouteNo="1" devices="vehroute_41 tripinfo_41 routing_41" vType="motorbike" speedFactor="1.34" vaporized=""/>
    <tripinfo id="93" depart="34.00" departLane="-766326334.90_0" departPos="63.96" departPosLat="0.00" departSpeed="16.32" departDelay="0.52" arrival="164.00" arrivalLane="723990057#4_0" arrivalPos="37.18" arrivalPosLat="0.00" arrivalSpeed="12.27" duration="130.00" routeLength="1248.86" waitingTime="21.00" waitingCount="3" stopTime="0.00" timeLoss="52.78" rerouteNo="1" devices="vehroute_93 tripinfo_93 routing_93" vType="motorbike" speedFactor="1.17" vaporized=""/>
    <tripinfo id="389" depart="141.00" departLane="721131967_0" departPos="27.72" departPosLat="0.00" departSpeed="11.75" departDelay="0.96" arrival="164.00" arrivalLane="721131966#0_0" arrivalPos="9.73" arrivalPosLat="0.00" arrivalSpeed="7.83" duration="23.00" routeLength="188.18" waitingTime="0.00" waitingCount="0" stopTime="0.00" timeLoss="8.06" rerouteNo="1" devices="vehroute_389 tripinfo_389 routing_389" vType="car" speedFactor="0.85" vaporized=""/>
    <tripinfo id="411" depart="148.00" departLane="152227691#5_1" departPos="3.05" departPosLat="0.00" departSpeed="22.22" departDelay="0.04" arrival="166.00" arrivalLane="850817945_0" arrivalPos="0.20" arrivalPosLat="0.00" arrivalSpeed="2.56" duration="18.00" routeLength="266.76" waitingTime="0.00" waitingCount="0" stopTime="0.00" timeLoss="3.56" rerouteNo="1" devices="vehroute_411 tripinfo_411 routing_411" vType="car" speedFactor="0.89" vaporized=""/>
    <tripinfo id="8" depart="3.00" departLane="-723990057#2_0" departPos="86.57" departPosLat="0.00" departSpeed="16.67" departDelay="0.12" arrival="167.00" arrivalLane="442885355#1_0" arrivalPos="62.79" arrivalPosLat="0.00" arrivalSpeed="16.60" duration="164.00" routeLength="2176.58" waitingTime="0.00" waitingCount="0" stopTime="0.00" timeLoss="16.69" rerouteNo="1" devices="vehroute_8 tripinfo_8 routing_8" vType="bus" speedFactor="0.85" vaporized=""/>
    <tripinfo id="193" depart="71.00" departLane="-100954129#0_0" departPos="0.68" departPosLat="0.00" departSpeed="5.38" departDelay="1.52" arrival="172.00" arrivalLane="100954129#4_0" arrivalPos="53.40" arrivalPosLat="-1.27" arrivalSpeed="4.98" duration="101.00" routeLength="351.66" waitingTime="22.00" waitingCount="2" stopTime="0.00" timeLoss="34.72" rerouteNo="1" devices="vehroute_193 tripinfo_193 routing_193" vType="DEFAULT_BIKETYPE" speedFactor="0.97" vaporized=""/>
    <tripinfo id="16" depart="6.00" departLane="155775198#4_0" departPos="1.91" departPosLat="0.00" departSpeed="12.68" departDelay="0.24" arrival="174.00" arrivalLane="850817949_0" arrivalPos="0.39" arrivalPosLat="0.35" arrivalSpeed="3.44" duration="168.00" routeLength="1959.61" waitingTime="11.00" waitingCount="1" stopTime="0.00" timeLoss="45.95" rerouteNo="1" devices="vehroute_16 tripinfo_16 routing_16" vType="bus" speedFactor="0.96" vaporized=""/>
    <tripinfo id="210" depart="76.00" departLane="721131937#9_2" departPos="2.65" departPosLat="0.00" departSpeed="16.67" departDelay="0.40" arrival="174.00" arrivalLane="721131946#2_1" arrivalPos="469.55" arrivalPosLat="0.00" arrivalSpeed="15.29" duration="98.00" routeLength="1488.97" waitingTime="0.00" waitingCount="0" stopTime="0.00" timeLoss="6.60" rerouteNo="1" devices="vehroute_210 tripinfo_210 routing_210" vType="motorbike" speedFactor="1.18" vaporized=""/>
    <tripinfo id="201" depart="73.00" departLane="721131954#0_2" departPos="373.64" departPosLat="0.00" departSpeed="16.85" departDelay="0.64" arrival="176.00" arrivalLane="721131943_0" arrivalPos="0.20" arrivalPosLat="0.00" arrivalSpeed="4.65" duration="103.00" routeLength="1171.55" waitingTime="28.00" waitingCount="2" stopTime="0.00" timeLoss="48.61" rerouteNo="1" devices="vehroute_201 tripinfo_201 routing_201" vType="car" speedFactor="1.14" vaporized=""/>
    <tripinfo id="266" depart="96.00" departLane="721131954#0_2" departPos="58.73" departPosLat="0.00" departSpeed="22.22" departDelay="0.24" arrival="176.00" arrivalLane="850475200_1" arrivalPos="670.68" arrivalPosLat="0.00" arrivalSpeed="21.49" duration="80.00" routeLength="1481.15" waitingTime="0.00" waitingCount="0" stopTime="0.00" timeLoss="11.20" rerouteNo="1" devices="vehroute_266 tripinfo_266 routing_266" vType="car" speedFactor="1.17" vaporized=""/>
    <tripinfo id="468" depart="169.00" departLane="850699983#1_0" departPos="3.74" departPosLat="0.00" departSpeed="14.37" departDelay="0.52" arrival="176.00" arrivalLane="721131953_0" arrivalPos="0.20" arrivalPosLat="0.00" arrivalSpeed="13.54" duration="7.00" routeLength="86.75" waitingTime="0.00" waitingCount="0" stopTime="0.00" timeLoss="0.27" rerouteNo="0" devices="vehroute_468 tripinfo_468 routing_468" vType="car" speedFactor="1.03" vaporized=""/>
    <tripinfo id="192" depart="70.00" departLane="1056899464#2_0" departPos="21.98" departPosLat="0.00" departSpeed="12.76" departDelay="0.88" arrival="177.00" arrivalLane="31905181#1_0" arrivalPos="336.34" arrivalPosLat="0.00" arrivalSpeed="12.64" duration="107.00" routeLength="1399.81" waitingTime="0.00" waitingCount="0" stopTime="0.00" timeLoss="14.96" rerouteNo="1" devices="vehroute_192 tripinfo_192 routing_192" vType="car" speedFactor="0.92" vaporized=""/>
    <tripinfo id="463" depart="167.00" departLane="721131946#8_2" departPos="107.00" departPosLat="0.00" departSpeed="22.22" departDelay="0.32" arrival="178.00" arrivalLane="721131940_0" arrivalPos="0.22" arrivalPosLat="0.70" arrivalSpeed="4.52" duration="11.00" routeLength="169.01" waitingTime="0.00" waitingCount="0" stopTime="0.00" timeLoss="2.58" rerouteNo="0" devices="vehroute_463 tripinfo_463 routing_463" vType="car" speedFactor="0.84" vaporized=""/>
    <tripinfo id="14" depart="6.00" departLane="721131960#5_1" departPos="3.25" departPosLat="0.00" departSpeed="2.49" departDelay="0.96" arrival="182.00" arrivalLane="591704635#0_0" arrivalPos="394.13" arrivalPosLat="0.00" arrivalSpeed="15.07" duration="176.00" routeLength="1986.47" waitingTime="36.00" waitingCount="1" stopTime="0.00" timeLoss="54.17" rerouteNo="1" devices="vehroute_14 tripinfo_14 routing_14" vType="motorbike" speedFactor="1.16" vaporized=""/>
    <tripinfo id="414" depart="150.00" departLane="721131961_0" departPos="0.16" departPosLat="0.00" departSpeed="0.04" departDelay="0.96" arrival="182.00" arrivalLane="721131963#3_1" arrivalPos="496.13" arrivalPosLat="0.00" arrivalSpeed="21.75" duration="32.00" routeLength="514.29" waitingTime="0.00" waitingCount="0" stopTime="0.00" timeLoss="5.63" rerouteNo="1" devices="vehroute_414 tripinfo_414 routing_414" vType="car" speedFactor="0.90" vaporized=""/>
    <tripinfo id="3" depart="2.00" departLane="722464592_0" departPos="135.25" departPosLat="0.00" departSpeed="22.22" departDelay="0.92" arrival="183.00" arrivalLane="-155315678#5_0" arrivalPos="269.67" arrivalPosLat="0.00" arrivalSpeed="4.18" duration="181.00" routeLength="2542.57" waitingTime="35.00" waitingCount="2" stopTime="0.00" timeLoss="58.30" rerouteNo="1" devices="vehroute_3 tripinfo_3 routing_3" vType="car" speedFactor="0.83" vaporized=""/>
    <tripinfo id="106" depart="39.00" departLane="-442885101#0_1" departPos="18.38" departPosLat="0.00" departSpeed="5.22" departDelay="0.84" arrival="183.00" arrivalLane="1056899464#1_0" arrivalPos="90.34" arrivalPosLat="-1.67" arrivalSpeed="4.84" duration="144.00" routeLength="431.98" waitingTime="49.00" waitingCount="2" stopTime="0.00" timeLoss="61.01" rerouteNo="1" devices="vehroute_106 tripinfo_106 routing_106" vType="DEFAULT_BIKETYPE" speedFactor="0.94" vaporized=""/>
    <tripinfo id="351" depart="127.00" departLane="152227697#4_0" departPos="425.90" departPosLat="0.00" departSpeed="16.67" departDelay="0.64" arrival="183.00" arrivalLane="-152227697#2_0" arrivalPos="220.61" arrivalPosLat="0.00" arrivalSpeed="15.21" duration="56.00" routeLength="761.56" waitingTime="0.00" waitingCount="0" stopTime="0.00" timeLoss="8.37" rerouteNo="1" devices="vehroute_351 tripinfo_351 routing_351" vType="motorbike" speedFactor="0.93" vaporized=""/>
    <tripinfo id="144" depart="53.00" departLane="1307054560#1_0" departPos="20.11" departPosLat="0.00" departSpeed="13.75" departDelay="1.16" arrival="188.00" arrivalLane="-100954129#5_0" arrivalPos="159.26" arrivalPosLat="0.00" arrivalSpeed="13.45" duration="135.00" routeLength="928.27" waitingTime="49.00" waitingCount="2" stopTime="0.00" timeLoss="83.41" rerouteNo="1" devices="vehroute_144 tripinfo_144 routing_144" vType="car" speedFactor="0.97" vaporized=""/>
    <tripinfo id="51" depart="19.00" departLane="-851342124_0" departPos="1.37" departPosLat="0.00" departSpeed="0.09" departDelay="0.64" arrival="189.00" arrivalLane="721126897#15_1" arrivalPos="21.55" arrivalPosLat="0.00" arrivalSpeed="7.37" duration="170.00" routeLength="2337.14" waitingTime="4.00" waitingCount="1" stopTime="0.00" timeLoss="27.27" rerouteNo="1" devices="vehroute_51 tripinfo_51 routing_51" vType="bus" speedFactor="0.98" vaporized=""/>
    <tripinfo id="175" depart="63.00" departLane="-155315719#1_0" departPos="90.77" departPosLat="0.00" departSpeed="16.67" departDelay="0.00" arrival="190.00" arrivalLane="152227686#3_0" arrivalPos="297.22" arrivalPosLat="0.00" arrivalSpeed="12.11" duration="127.00" routeLength="1511.97" waitingTime="1.00" waitingCount="1" stopTime="0.00" timeLoss="23.41" rerouteNo="1" devices="vehroute_175 tripinfo_175 routing_175" vType="motorbike" speedFactor="0.96" vaporized=""/>
    <tripinfo id="124" depart="45.00" departLane="934254484#2_0" departPos="985.60" departPosLat="0.00" departSpeed="17.10" departDelay="0.36" arrival="191.00" arrivalLane="934254484#0_0" arrivalPos="337.59" arrivalPosLat="0.00" arrivalSpeed="19.41" duration="146.00" routeLength="2398.52" waitingTime="0.00" waitingCount="0" stopTime="0.00" timeLoss="19.57" rerouteNo="1" devices="vehroute_124 tripinfo_124 routing_124" vType="truck" speedFactor="0.88" vaporized=""/>
    <tripinfo id="225" depart="81.00" departLane="721126897#12_0" departPos="141.10" departPosLat="0.00" departSpeed="16.67" departDelay="0.00" arrival="193.00" arrivalLane="-852629939_0" arrivalPos="0.20" arrivalPosLat="-0.35" arrivalSpeed="5.07" duration="112.00" routeLength="1688.66" waitingTime="0.00" waitingCount="0" stopTime="0.00" timeLoss="9.20" rerouteNo="1" devices="vehroute_225 tripinfo_225 routing_225" vType="bus" speedFactor="0.91" vaporized=""/>
    <tripinfo id="47" depart="17.00" departLane="934254484#0_0" departPos="225.55" departPosLat="0.00" departSpeed="16.67" departDelay="0.08" arrival="195.00" arrivalLane="155775198#1_0" arrivalPos="392.69" arrivalPosLat="-0.02" arrivalSpeed="16.62" duration="178.00" routeLength="2373.86" waitingTime="0.00" waitingCount="0" stopTime="0.00" timeLoss="27.06" rerouteNo="1" devices="vehroute_47 tripinfo_47 routing_47" vType="bus" speedFactor="0.97" vaporized=""/>