<?xml version="1.0" encoding="UTF-8"?>

<!-- generated on 2025-08-18 15:57:01 by Eclipse SUMO GUI Version 1.23.1
<sumoConfiguration xmlns:xsi="http://www.w3.org/2001/XMLSchema-instance" xsi:noNamespaceSchemaLocation="http://sumo.dlr.de/xsd/sumoConfiguration.xsd">

    <input>
        <net-file value="PhuQuoc/phuquoc.net.xml"/>
        <route-files value="PhuQuoc/phuquoc.rou.xml,PhuQuoc/phuquoc-demo.rou.xml"/>
        <additional-files value="PhuQuoc/detector.add.xml"/>
    </input>

    <output>
        <tripinfo-output value="PhuQuoc/../../output/tripinfo_baseline.xml"/>
        <edgedata-output value="PhuQuoc/../../output/edgedata_baseline.xml"/>
    </output>

    <time>
        <step-length value="1"/>
    </time>

    <processing>
        <lateral-resolution value="0.5"/>
        <ignore-route-errors value="true"/>
        <time-to-teleport value="50"/>
        <tls.actuated.jam-threshold value="30"/>
    </processing>

    <routing>
        <device.rerouting.adaptation-steps value="18"/>
        <device.rerouting.adaptation-interval value="10"/>
    </routing>

    <report>
        <verbose value="true"/>
        <duration-log.statistics value="true"/>
        <no-step-log value="true"/>
    </report>

    <traci_server>
        <remote-port value="8814"/>
    </traci_server>

    <gui_only>
        <gui-settings-file value="PhuQuoc/phuquoc.view.xml"/>
        <start value="true"/>
    </gui_only>

</sumoConfiguration>
-->

<tripinfos xmlns:xsi="http://www.w3.org/2001/XMLSchema-instance" xsi:noNamespaceSchemaLocation="http://sumo.dlr.de/xsd/tripinfo_file.xsd">
    <tripinfo id="87" depart="21.00" departLane="721131946#8_2" departPos="167.42" departPosLat="0.00" departSpeed="16.67" departDelay="0.12" arrival="41.00" arrivalLane="-721131939_0" arrivalPos="1.72" arrivalPosLat="1.20" arrivalSpeed="3.45" duration="20.00" routeLength="253.98" waitingTime="0.00" waitingCount="0" stopTime="0.00" timeLoss="3.53" rerouteNo="1" devices="tripinfo_87 routing_87" vType="motorbike" speedFactor="1.16" vaporized=""/>
    <tripinfo id="21" depart="6.00" departLane="-723990057#4_0" departPos="11.42" departPosLat="0.00" departSpeed="13.09" departDelay="0.96" arrival="42.00" arrivalLane="100954129#4_0" arrivalPos="53.40" arrivalPosLat="0.00" arrivalSpeed="15.21" duration="36.00" routeLength="348.30" waitingTime="0.00" waitingCount="0" stopTime="0.00" timeLoss="10.38" rerouteNo="1" devices="tripinfo_21 routing_21" vType="motorbike" speedFactor="1.11" vaporized=""/>
    <tripinfo id="128" depart="31.00" departLane="-152227686#2_0" departPos="3.65" departPosLat="0.00" departSpeed="11.86" departDelay="0.28" arrival="59.00" arrivalLane="-722464597#2_0" arrivalPos="28.36" arrivalPosLat="0.00" arrivalSpeed="9.43" duration="28.00" routeLength="201.51" waitingTime="0.00" waitingCount="0" stopTime="0.00" timeLoss="9.33" rerouteNo="1" devices="tripinfo_128 routing_128" vType="car" speedFactor="0.90" vaporized=""/>
    <tripinfo id="15" depart="4.00" departLane="721131946#8_2" departPos="16.14" departPosLat="0.00" departSpeed="19.44" departDelay="0.40" arrival="63.00" arrivalLane="721131937#8_0" arrivalPos="350.24" arrivalPosLat="1.40" arrivalSpeed="19.24" duration="59.00" routeLength="902.99" waitingTime="0.00" waitingCount="0" stopTime="0.00" timeLoss="9.83" rerouteNo="1" devices="tripinfo_15 routing_15" vType="truck" speedFactor="0.79" vaporized=""/>
    <tripinfo id="167" depart="41.00" departLane="721131963#3_1" departPos="59.25" departPosLat="0.00" departSpeed="16.67" departDelay="0.92" arrival="68.00" arrivalLane="721131963#3_0" arrivalPos="496.13" arrivalPosLat="1.20" arrivalSpeed="16.55" duration="27.00" routeLength="436.88" waitingTime="0.00" waitingCount="0" stopTime="0.00" timeLoss="0.28" rerouteNo="1" devices="tripinfo_167 routing_167" vType="bus" speedFactor="0.99" vaporized=""/>
    <tripinfo id="200" depart="48.00" departLane="152227686#2_0" departPos="3.68" departPosLat="0.00" departSpeed="0.33" departDelay="0.00" arrival="72.00" arrivalLane="-722464597#2_0" arrivalPos="28.36" arrivalPosLat="0.00" arrivalSpeed="10.27" duration="24.00" routeLength="214.27" waitingTime="0.00" waitingCount="0" stopTime="0.00" timeLoss="8.80" rerouteNo="1" devices="tripinfo_200 routing_200" vType="motorbike" speedFactor="1.29" vaporized=""/>
    <tripinfo id="197" depart="48.00" departLane="-100954129#0_0" departPos="2.87" departPosLat="0.00" departSpeed="10.97" departDelay="0.72" arrival="82.00" arrivalLane="100954129#2_0" arrivalPos="67.78" arrivalPosLat="0.00" arrivalSpeed="10.70" duration="34.00" routeLength="278.74" waitingTime="0.00" waitingCount="0" stopTime="0.00" timeLoss="6.33" rerouteNo="1" devices="tripinfo_197 routing_197" vType="truck" speedFactor="0.79" vaporized=""/>
    <tripinfo id="24" depart="6.00" departLane="721126897#13_1" departPos="197.54" departPosLat="0.00" departSpeed="16.67" departDelay="0.24" arrival="83.00" arrivalLane="1149579536#7_0" arrivalPos="84.51" arrivalPosLat="0.00" arrivalSpeed="15.20" duration="77.00" routeLength="1192.96" waitingTime="0.00" waitingCount="0" stopTime="0.00" timeLoss="4.68" rerouteNo="1" devices="tripinfo_24 routing_24" vType="motorbike" speedFactor="0.98" vaporized=""/>
    <tripinfo id="339" depart="82.00" departLane="-722464597#1_0" departPos="47.92" departPosLat="0.00" departSpeed="16.67" departDelay="0.64" arrival="83.00" arrivalLane="-722464597#1_0" arrivalPos="57.55" arrivalPosLat="0.00" arrivalSpeed="14.96" duration="1.00" routeLength="9.63" waitingTime="0.00" waitingCount="0" stopTime="0.00" timeLoss="0.10" rerouteNo="1" devices="tripinfo_339 routing_339" vType="motorbike" speedFactor="1.23" vaporized=""/>
    <tripinfo id="109" depart="27.00" departLane="-322191552_0" departPos="152.49" departPosLat="0.00" departSpeed="16.67" departDelay="0.84" arrival="84.00" arrivalLane="1056899464#0_0" arrivalPos="79.27" arrivalPosLat="0.00" arrivalSpeed="15.90" duration="57.00" routeLength="778.43" waitingTime="0.00" waitingCount="0" stopTime="0.00" timeLoss="9.92" rerouteNo="1" devices="tripinfo_109 routing_109" vType="motorbike" speedFactor="1.26" vaporized=""/>
    <tripinfo id="263" depart="64.00" departLane="724005155#9_0" departPos="131.09" departPosLat="0.00" departSpeed="16.67" departDelay="0.88" arrival="85.00" arrivalLane="-721131953_0" arrivalPos="0.20" arrivalPosLat="1.20" arrivalSpeed="4.65" duration="21.00" routeLength="288.24" waitingTime="0.00" waitingCount="0" stopTime="0.00" timeLoss="3.24" rerouteNo="1" devices="tripinfo_263 routing_263" vType="motorbike" speedFactor="1.30" vaporized=""/>
    <tripinfo id="36" depart="9.00" departLane="721131966#0_0" departPos="3.22" departPosLat="0.00" departSpeed="4.75" departDelay="0.36" arrival="87.00" arrivalLane="1119166765#12_0" arrivalPos="481.07" arrivalPosLat="0.00" arrivalSpeed="19.43" duration="78.00" routeLength="487.58" waitingTime="51.00" waitingCount="1" stopTime="0.00" timeLoss="52.87" rerouteNo="0" devices="tripinfo_36 routing_36" vType="truck" speedFactor="1.00" vaporized=""/>
    <tripinfo id="117" depart="29.00" departLane="-724005148_0" departPos="139.20" departPosLat="0.00" departSpeed="2.70" departDelay="0.92" arrival="88.00" arrivalLane="-155315719#8_0" arrivalPos="368.37" arrivalPosLat="0.00" arrivalSpeed="16.59" duration="59.00" routeLength="758.68" waitingTime="0.00" waitingCount="0" stopTime="0.00" timeLoss="11.28" rerouteNo="1" devices="tripinfo_117 routing_117" vType="motorbike" speedFactor="1.07" vaporized=""/>
    <tripinfo id="130" depart="32.00" departLane="721131968_0" departPos="2.09" departPosLat="0.00" departSpeed="8.88" departDelay="0.80" arrival="90.00" arrivalLane="722464591#3_0" arrivalPos="60.98" arrivalPosLat="0.00" arrivalSpeed="16.48" duration="58.00" routeLength="77.13" waitingTime="51.00" waitingCount="1" stopTime="0.00" timeLoss="54.05" rerouteNo="0" devices="tripinfo_130 routing_130" vType="bus" speedFactor="0.86" vaporized=""/>
    <tripinfo id="10" depart="4.00" departLane="721131946#8_2" departPos="121.07" departPosLat="0.00" departSpeed="16.67" departDelay="1.60" arrival="93.00" arrivalLane="721131937#10_0" arrivalPos="532.93" arrivalPosLat="0.00" arrivalSpeed="16.47" duration="89.00" routeLength="1358.40" waitingTime="0.00" waitingCount="0" stopTime="0.00" timeLoss="5.34" rerouteNo="1" devices="tripinfo_10 routing_10" vType="bus" speedFactor="0.99" vaporized=""/>
    <tripinfo id="179" depart="43.00" departLane="-155315711_0" departPos="42.46" departPosLat="0.00" departSpeed="15.68" departDelay="0.04" arrival="94.00" arrivalLane="152227686#3_0" arrivalPos="297.22" arrivalPosLat="0.00" arrivalSpeed="14.99" duration="51.00" routeLength="568.28" waitingTime="0.00" waitingCount="0" stopTime="0.00" timeLoss="13.44" rerouteNo="1" devices="tripinfo_179 routing_179" vType="motorbike" speedFactor="1.13" vaporized=""/>
    <tripinfo id="266" depart="68.00" departLane="31905195#2_0" departPos="59.20" departPosLat="0.00" departSpeed="15.45" departDelay="4.16" arrival="94.00" arrivalLane="-722466950_0" arrivalPos="4.85" arrivalPosLat="0.00" arrivalSpeed="7.00" duration="26.00" routeLength="359.73" waitingTime="0.00" waitingCount="0" stopTime="0.00" timeLoss="7.47" rerouteNo="1" devices="tripinfo_266 routing_266" vType="car" speedFactor="1.17" vaporized=""/>
    <tripinfo id="155" depart="38.00" departLane="722464593#1_0" departPos="181.15" departPosLat="0.00" departSpeed="19.44" departDelay="0.80" arrival="97.00" arrivalLane="-722464595_0" arrivalPos="0.20" arrivalPosLat="0.00" arrivalSpeed="5.53" duration="59.00" routeLength="869.14" waitingTime="0.00" waitingCount="0" stopTime="0.00" timeLoss="11.97" rerouteNo="1" devices="tripinfo_155 routing_155" vType="truck" speedFactor="0.97" vaporized=""/>
    <tripinfo id="308" depart="74.00" departLane="721131937#8_2" departPos="44.87" departPosLat="0.00" departSpeed="16.67" departDelay="0.08" arrival="97.00" arrivalLane="1149576119_0" arrivalPos="0.81" arrivalPosLat="1.20" arrivalSpeed="8.19" duration="23.00" routeLength="332.02" waitingTime="0.00" waitingCount="0" stopTime="0.00" timeLoss="2.28" rerouteNo="1" devices="tripinfo_308 routing_308" vType="motorbike" speedFactor="1.37" vaporized=""/>
    <tripinfo id="189" depart="46.00" departLane="1119166764#0_2" departPos="91.67" departPosLat="0.00" departSpeed="16.67" departDelay="0.64" arrival="102.00" arrivalLane="721131963#0_1" arrivalPos="61.82" arrivalPosLat="0.00" arrivalSpeed="13.70" duration="56.00" routeLength="206.84" waitingTime="33.00" waitingCount="1" stopTime="0.00" timeLoss="43.11" rerouteNo="0" devices="tripinfo_189 routing_189" vType="bus" speedFactor="1.00" vaporized=""/>
    <tripinfo id="267" depart="65.00" departLane="721131937#0_1" departPos="17.06" departPosLat="0.00" departSpeed="16.67" departDelay="0.92" arrival="105.00" arrivalLane="721131946#15_1" arrivalPos="21.75" arrivalPosLat="0.00" arrivalSpeed="15.10" duration="40.00" routeLength="566.83" waitingTime="0.00" waitingCount="0" stopTime="0.00" timeLoss="3.84" rerouteNo="1" devices="tripinfo_267 routing_267" vType="motorbike" speedFactor="1.09" vaporized=""/>
    <tripinfo id="22" depart="6.00" departLane="-155315678#4_0" departPos="410.16" departPosLat="0.00" departSpeed="16.67" departDelay="0.72" arrival="107.00" arrivalLane="-723990057#5_0" arrivalPos="39.97" arrivalPosLat="0.00" arrivalSpeed="14.16" duration="101.00" routeLength="1248.02" waitingTime="5.00" waitingCount="1" stopTime="0.00" timeLoss="24.95" rerouteNo="1" devices="tripinfo_22 routing_22" vType="motorbike" speedFactor="0.88" vaporized=""/>
    <tripinfo id="148" depart="37.00" departLane="1307054560#0_0" departPos="6.40" departPosLat="0.00" departSpeed="11.74" departDelay="1.48" arrival="109.00" arrivalLane="-100954163#8_0" arrivalPos="39.95" arrivalPosLat="0.00" arrivalSpeed="14.93" duration="72.00" routeLength="307.03" waitingTime="43.00" waitingCount="1" stopTime="0.00" timeLoss="51.99" rerouteNo="1" devices="tripinfo_148 routing_148" vType="motorbike" speedFactor="1.20" vaporized=""/>
    <tripinfo id="79" depart="19.00" departLane="-723990057#5_0" departPos="20.50" departPosLat="0.00" departSpeed="19.44" departDelay="0.04" arrival="112.00" arrivalLane="-723990054_0" arrivalPos="61.78" arrivalPosLat="0.00" arrivalSpeed="12.20" duration="93.00" routeLength="1078.63" waitingTime="19.00" waitingCount="1" stopTime="0.00" timeLoss="35.75" rerouteNo="1" devices="tripinfo_79 routing_79" vType="truck" speedFactor="1.08" vaporized=""/>
    <tripinfo id="93" depart="23.00" departLane="721131963#1_0" departPos="628.36" departPosLat="0.00" departSpeed="10.65" departDelay="0.68" arrival="112.00" arrivalLane="-724005155#9_0" arrivalPos="155.18" arrivalPosLat="0.00" arrivalSpeed="14.48" duration="89.00" routeLength="1359.91" waitingTime="0.00" waitingCount="0" stopTime="0.00" timeLoss="6.90" rerouteNo="1" devices="tripinfo_93 routing_93" vType="motorbike" speedFactor="1.17" vaporized=""/>
    <tripinfo id="169" depart="41.00" departLane="152227691#13_0" departPos="1.37" departPosLat="0.00" departSpeed="22.22" departDelay="0.44" arrival="115.00" arrivalLane="1119166765#1_0" arrivalPos="369.98" arrivalPosLat="0.00" arrivalSpeed="22.20" duration="74.00" routeLength="1573.47" waitingTime="0.00" waitingCount="0" stopTime="0.00" timeLoss="3.10" rerouteNo="1" devices="tripinfo_169 routing_169" vType="car" speedFactor="1.19" vaporized=""/>
    <tripinfo id="133" depart="32.00" departLane="591704635#3_0" departPos="320.18" departPosLat="0.00" departSpeed="22.22" departDelay="0.08" arrival="116.00" arrivalLane="857958820#0_1" arrivalPos="611.44" arrivalPosLat="0.00" arrivalSpeed="21.59" duration="84.00" routeLength="1394.01" waitingTime="0.00" waitingCount="0" stopTime="0.00" timeLoss="16.95" rerouteNo="1" devices="tripinfo_133 routing_133" vType="car" speedFactor="0.96" vaporized=""/>
    <tripinfo id="112" depart="27.00" departLane="-1270367191#2_0" departPos="1.56" departPosLat="0.00" departSpeed="2.55" departDelay="0.12" arrival="120.00" arrivalLane="442885101#1_1" arrivalPos="36.21" arrivalPosLat="0.00" arrivalSpeed="10.43" duration="93.00" routeLength="664.31" waitingTime="22.00" waitingCount="1" stopTime="0.00" timeLoss="49.65" rerouteNo="1" devices="tripinfo_112 routing_112" vType="motorbike" speedFactor="0.98" vaporized=""/>
    <tripinfo id="67" depart="17.00" departLane="-155315682_0" departPos="8.81" departPosLat="0.00" departSpeed="12.99" departDelay="0.92" arrival="123.00" arrivalLane="152227697#4_0" arrivalPos="468.47" arrivalPosLat="0.00" arrivalSpeed="20.19" duration="106.00" routeLength="1390.22" waitingTime="0.00" waitingCount="0" stopTime="0.00" timeLoss="24.11" rerouteNo="1" devices="tripinfo_67 routing_67" vType="car" speedFactor="0.94" vaporized=""/>
    <tripinfo id="88" depart="22.00" departLane="-155315694#2_0" departPos="109.73" departPosLat="0.00" departSpeed="15.37" departDelay="0.88" arrival="123.00" arrivalLane="152227686#1_0" arrivalPos="19.86" arrivalPosLat="0.00" arrivalSpeed="7.32" duration="101.00" routeLength="1194.03" waitingTime="0.00" waitingCount="0" stopTime="0.00" timeLoss="23.86" rerouteNo="1" devices="tripinfo_88 routing_88" vType="motorbike" speedFactor="1.11" vaporized=""/>
    <tripinfo id="156" depart="38.00" departLane="-766326315_0" departPos="51.37" departPosLat="0.00" departSpeed="12.50" departDelay="0.56" arrival="123.00" arrivalLane="-155315694#3_0" arrivalPos="41.00" arrivalPosLat="0.00" arrivalSpeed="10.69" duration="85.00" routeLength="580.50" waitingTime="22.00" waitingCount="1" stopTime="0.00" timeLoss="36.27" rerouteNo="1" devices="tripinfo_156 routing_156" vType="truck" speedFactor="0.90" vaporized=""/>
    <tripinfo id="38" depart="10.00" departLane="722466950_0" departPos="2.00" departPosLat="0.00" departSpeed="2.85" departDelay="0.88" arrival="125.00" arrivalLane="152227691#2_1" arrivalPos="125.78" arrivalPosLat="0.00" arrivalSpeed="21.59" duration="115.00" routeLength="1955.90" waitingTime="3.00" waitingCount="1" stopTime="0.00" timeLoss="22.91" rerouteNo="1" devices="tripinfo_38 routing_38" vType="car" speedFactor="0.94" vaporized=""/>
    <tripinfo id="184" depart="45.00" departLane="-100954129#0_0" departPos="13.01" departPosLat="0.00" departSpeed="12.93" departDelay="0.84" arrival="125.00" arrivalLane="723990057#5_0" arrivalPos="39.97" arrivalPosLat="0.00" arrivalSpeed="11.33" duration="80.00" routeLength="676.55" waitingTime="5.00" waitingCount="1" stopTime="0.00" timeLoss="42.96" rerouteNo="1" devices="tripinfo_184 routing_184" vType="car" speedFactor="0.93" vaporized=""/>
    <tripinfo id="244" depart="59.00" departLane="205021436#0_0" departPos="44.19" departPosLat="0.00" departSpeed="16.67" departDelay="0.44" arrival="127.00" arrivalLane="591704635#0_0" arrivalPos="394.13" arrivalPosLat="0.00" arrivalSpeed="16.19" duration="68.00" routeLength="1055.55" waitingTime="0.00" waitingCount="0" stopTime="0.00" timeLoss="4.42" rerouteNo="1" devices="tripinfo_244 routing_244" vType="motorbike" speedFactor="1.04" vaporized=""/>
    <tripinfo id="64" depart="62.00" departLane="721131966#0_0" departPos="2.14" departPosLat="0.00" departSpeed="4.94" departDelay="46.64" arrival="129.00" arrivalLane="721131960#4_0" arrivalPos="53.63" arrivalPosLat="-1.27" arrivalSpeed="4.46" duration="67.00" routeLength="61.22" waitingTime="51.00" waitingCount="1" stopTime="0.00" timeLoss="54.26" rerouteNo="0" devices="tripinfo_64 routing_64" vType="DEFAULT_BIKETYPE" speedFactor="0.89" vaporized=""/>
    <tripinfo id="66" depart="63.00" departLane="721131966#0_0" departPos="1.45" departPosLat="0.00" departSpeed="6.39" departDelay="47.16" arrival="130.00" arrivalLane="724005155#9_0" arrivalPos="156.61" arrivalPosLat="0.00" arrivalSpeed="13.48" duration="67.00" routeLength="164.89" waitingTime="51.00" waitingCount="1" stopTime="0.00" timeLoss="55.50" rerouteNo="0" devices="tripinfo_66 routing_66" vType="motorbike" speedFactor="1.06" vaporized=""/>
    <tripinfo id="140" depart="34.00" departLane="721131937#13_2" departPos="105.85" departPosLat="0.00" departSpeed="16.67" departDelay="0.40" arrival="134.00" arrivalLane="-721131961_0" arrivalPos="0.20" arrivalPosLat="1.20" arrivalSpeed="6.91" duration="100.00" routeLength="1531.31" waitingTime="0.00" waitingCount="0" stopTime="0.00" timeLoss="7.29" rerouteNo="1" devices="tripinfo_140 routing_140" vType="motorbike" speedFactor="1.18" vaporized=""/>
    <tripinfo id="72" depart="18.00" departLane="1270367191#0_0" departPos="181.56" departPosLat="0.00" departSpeed="5.43" departDelay="0.72" arrival="136.00" arrivalLane="-722464597#1_0" arrivalPos="57.55" arrivalPosLat="-1.27" arrivalSpeed="4.86" duration="118.00" routeLength="601.47" waitingTime="0.00" waitingCount="0" stopTime="0.00" timeLoss="6.79" rerouteNo="1" devices="tripinfo_72 routing_72" vType="DEFAULT_BIKETYPE" speedFactor="0.98" vaporized=""/>
    <tripinfo id="138" depart="34.00" departLane="-155315695#4_0" departPos="16.99" departPosLat="0.00" departSpeed="16.67" departDelay="0.88" arrival="138.00" arrivalLane="31905190#0_0" arrivalPos="94.09" arrivalPosLat="0.00" arrivalSpeed="15.14" duration="104.00" routeLength="1166.61" waitingTime="2.00" waitingCount="1" stopTime="0.00" timeLoss="32.47" rerouteNo="1" devices="tripinfo_138 routing_138" vType="motorbike" speedFactor="1.40" vaporized=""/>
    <tripinfo id="118" depart="29.00" departLane="722464592_0" departPos="244.17" departPosLat="0.00" departSpeed="16.67" departDelay="0.68" arrival="139.00" arrivalLane="-724005155#8_0" arrivalPos="135.43" arrivalPosLat="0.00" arrivalSpeed="9.87" duration="110.00" routeLength="1258.83" waitingTime="0.00" waitingCount="0" stopTime="0.00" timeLoss="13.37" rerouteNo="1" devices="tripinfo_118 routing_118" vType="motorbike" speedFactor="0.84" vaporized=""/>
    <tripinfo id="152" depart="37.00" departLane="-31905195#2_0" departPos="105.23" departPosLat="0.00" departSpeed="6.85" departDelay="0.52" arrival="143.00" arrivalLane="-155775198#5_0" arrivalPos="10.72" arrivalPosLat="0.00" arrivalSpeed="16.28" duration="106.00" routeLength="1232.93" waitingTime="1.00" waitingCount="1" stopTime="0.00" timeLoss="29.42" rerouteNo="1" devices="tripinfo_152 routing_152" vType="motorbike" speedFactor="1.03" vaporized=""/>
    <tripinfo id="211" depart="54.00" departLane="-721131943_0" departPos="0.07" departPosLat="0.00" departSpeed="0.13" departDelay="3.36" arrival="143.00" arrivalLane="721131937#10_1" arrivalPos="532.93" arrivalPosLat="0.00" arrivalSpeed="21.26" duration="89.00" routeLength="1575.11" waitingTime="0.00" waitingCount="0" stopTime="0.00" timeLoss="14.83" rerouteNo="1" devices="tripinfo_211 routing_211" vType="car" speedFactor="0.99" vaporized=""/>
    <tripinfo id="397" depart="96.00" departLane="-852629939_0" departPos="0.11" departPosLat="0.00" departSpeed="0.09" departDelay="0.72" arrival="144.00" arrivalLane="721131946#6_0" arrivalPos="349.84" arrivalPosLat="0.00" arrivalSpeed="21.31" duration="48.00" routeLength="729.96" waitingTime="0.00" waitingCount="0" stopTime="0.00" timeLoss="11.57" rerouteNo="1" devices="tripinfo_397 routing_397" vType="car" speedFactor="1.11" vaporized=""/>
    <tripinfo id="196" depart="48.00" departLane="1056899464#1_0" departPos="51.99" departPosLat="0.00" departSpeed="12.52" departDelay="0.96" arrival="145.00" arrivalLane="31905181#0_0" arrivalPos="153.61" arrivalPosLat="0.00" arrivalSpeed="11.26" duration="97.00" routeLength="1138.36" waitingTime="0.00" waitingCount="0" stopTime="0.00" timeLoss="14.26" rerouteNo="1" devices="tripinfo_196 routing_196" vType="motorbike" speedFactor="0.90" vaporized=""/>
    <tripinfo id="292" depart="87.00" departLane="721131968_0" departPos="11.27" departPosLat="0.00" departSpeed="5.48" departDelay="16.92" arrival="144.00" arrivalLane="-724005155#5_0" arrivalPos="29.55" arrivalPosLat="-1.60" arrivalSpeed="0.00" duration="57.00" routeLength="36.52" waitingTime="51.00" waitingCount="1" stopTime="0.00" timeLoss="53.69" rerouteNo="0" devices="tripinfo_292 routing_292" vType="car" speedFactor="1.06" vaporized="teleport"/>
    <tripinfo id="341" depart="82.00" departLane="-442885359#0_0" departPos="43.05" departPosLat="0.00" departSpeed="12.96" departDelay="0.16" arrival="145.00" arrivalLane="-152227686#0_0" arrivalPos="55.56" arrivalPosLat="0.00" arrivalSpeed="12.27" duration="63.00" routeLength="391.82" waitingTime="12.00" waitingCount="2" stopTime="0.00" timeLoss="35.13" rerouteNo="1" devices="tripinfo_341 routing_341" vType="car" speedFactor="0.93" vaporized=""/>
    <tripinfo id="512" depart="123.00" departLane="-31905195#1_0" departPos="41.00" departPosLat="0.00" departSpeed="12.64" departDelay="0.12" arrival="146.00" arrivalLane="722464597#2_0" arrivalPos="28.36" arrivalPosLat="0.00" arrivalSpeed="12.43" duration="23.00" routeLength="194.52" waitingTime="0.00" waitingCount="0" stopTime="0.00" timeLoss="6.20" rerouteNo="1" devices="tripinfo_512 routing_512" vType="truck" speedFactor="0.91" vaporized=""/>
    <tripinfo id="422" depart="102.00" departLane="721131961_0" departPos="0.11" departPosLat="0.00" departSpeed="0.09" departDelay="0.72" arrival="148.00" arrivalLane="721131963#3_1" arrivalPos="496.13" arrivalPosLat="0.00" arrivalSpeed="19.43" duration="46.00" routeLength="514.34" waitingTime="8.00" waitingCount="2" stopTime="0.00" timeLoss="17.60" rerouteNo="1" devices="tripinfo_422 routing_422" vType="car" speedFactor="0.73" vaporized=""/>
    <tripinfo id="378" depart="91.00" departLane="163652291_0" departPos="35.69" departPosLat="0.00" departSpeed="0.28" departDelay="0.28" arrival="150.00" arrivalLane="1149581388_0" arrivalPos="137.46" arrivalPosLat="0.00" arrivalSpeed="20.64" duration="59.00" routeLength="137.74" waitingTime="51.00" waitingCount="1" stopTime="0.00" timeLoss="52.17" rerouteNo="0" devices="tripinfo_378 routing_378" vType="car" speedFactor="0.95" vaporized=""/>
    <tripinfo id="98" depart="24.00" departLane="271412010_0" departPos="213.89" departPosLat="0.00" departSpeed="14.01" departDelay="0.48" arrival="151.00" arrivalLane="-1149580308_0" arrivalPos="1.06" arrivalPosLat="0.35" arrivalSpeed="6.00" duration="127.00" routeLength="1031.04" waitingTime="36.00" waitingCount="2" stopTime="0.00" timeLoss="61.19" rerouteNo="1" devices="tripinfo_98 routing_98" vType="bus" speedFactor="1.01" vaporized=""/>
    <tripinfo id="469" depart="113.00" departLane="721131958#1_0" departPos="89.60" departPosLat="0.00" departSpeed="16.67" departDelay="0.44" arrival="153.00" arrivalLane="-850699983#0_0" arrivalPos="165.60" arrivalPosLat="1.20" arrivalSpeed="16.58" duration="40.00" routeLength="577.54" waitingTime="0.00" waitingCount="0" stopTime="0.00" timeLoss="4.63" rerouteNo="1" devices="tripinfo_469 routing_469" vType="motorbike" speedFactor="1.29" vaporized=""/>
    <tripinfo id="42" depart="11.00" departLane="1149580107#2_1" departPos="20.33" departPosLat="0.00" departSpeed="19.44" departDelay="0.92" arrival="154.00" arrivalLane="-722466951_0" arrivalPos="3.72" arrivalPosLat="0.00" arrivalSpeed="4.10" duration="143.00" routeLength="2042.31" waitingTime="16.00" waitingCount="1" stopTime="0.00" timeLoss="33.89" rerouteNo="1" devices="tripinfo_42 routing_42" vType="truck" speedFactor="0.90" vaporized=""/>
    <tripinfo id="357" depart="86.00" departLane="152227697#3_0" departPos="3.26" departPosLat="0.00" departSpeed="0.19" departDelay="0.32" arrival="156.00" arrivalLane="-152227686#6_0" arrivalPos="288.93" arrivalPosLat="0.00" arrivalSpeed="13.40" duration="70.00" routeLength="811.36" waitingTime="0.00" waitingCount="0" stopTime="0.00" timeLoss="18.73" rerouteNo="1" devices="tripinfo_357 routing_357" vType="car" speedFactor="1.03" vaporized=""/>
    <tripinfo id="205" depart="50.00" departLane="721131954#0_2" departPos="238.14" departPosLat="0.00" departSpeed="16.67" departDelay="0.80" arrival="160.00" arrivalLane="721131943_0" arrivalPos="0.20" arrivalPosLat="0.00" arrivalSpeed="6.29" duration="110.00" routeLength="1307.05" waitingTime="0.00" waitingCount="0" stopTime="0.00" timeLoss="29.65" rerouteNo="1" devices="tripinfo_205 routing_205" vType="bus" speedFactor="1.02" vaporized=""/>
    <tripinfo id="229" depart="55.00" departLane="721126897#12_0" departPos="248.40" departPosLat="0.00" departSpeed="16.67" departDelay="0.04" arrival="163.00" arrivalLane="-852629939_0" arrivalPos="0.20" arrivalPosLat="1.20" arrivalSpeed="5.40" duration="108.00" routeLength="1581.36" waitingTime="0.00" waitingCount="0" stopTime="0.00" timeLoss="12.27" rerouteNo="1" devices="tripinfo_229 routing_229" vType="motorbike" speedFactor="1.14" vaporized=""/>
    <tripinfo id="270" depart="65.00" departLane="721131954#0_2" departPos="146.45" departPosLat="0.00" departSpeed="16.67" departDelay="0.20" arrival="163.00" arrivalLane="850475200_0" arrivalPos="670.68" arrivalPosLat="0.00" arrivalSpeed="16.19" duration="98.00" routeLength="1393.43" waitingTime="0.00" waitingCount="0" stopTime="0.00" timeLoss="11.95" rerouteNo="1" devices="tripinfo_270 routing_270" vType="motorbike" speedFactor="0.92" vaporized=""/>
    <tripinfo id="363" depart="88.00" departLane="721131934#0_1" departPos="127.52" departPosLat="0.00" departSpeed="16.67" departDelay="0.88" arrival="163.00" arrivalLane="-851342124_0" arrivalPos="1.47" arrivalPosLat="0.90" arrivalSpeed="7.10" duration="75.00" routeLength="424.49" waitingTime="36.00" waitingCount="1" stopTime="0.00" timeLoss="48.58" rerouteNo="1" devices="tripinfo_363 routing_363" vType="motorbike" speedFactor="1.17" vaporized=""/>
    <tripinfo id="471" depart="114.00" departLane="721131946#8_2" departPos="36.79" departPosLat="0.00" departSpeed="5.20" departDelay="0.96" arrival="163.00" arrivalLane="721131940_0" arrivalPos="0.22" arrivalPosLat="-1.27" arrivalSpeed="4.67" duration="49.00" routeLength="239.22" waitingTime="0.00" waitingCount="0" stopTime="0.00" timeLoss="2.60" rerouteNo="0" devices="tripinfo_471 routing_471" vType="DEFAULT_BIKETYPE" speedFactor="0.94" vaporized=""/>
    <tripinfo id="505" depart="122.00" departLane="721126897#7_2" departPos="486.53" departPosLat="0.00" departSpeed="19.44" departDelay="0.80" arrival="168.00" arrivalLane="721126897#15_0" arrivalPos="21.55" arrivalPosLat="0.00" arrivalSpeed="17.09" duration="46.00" routeLength="863.95" waitingTime="0.00" waitingCount="0" stopTime="0.00" timeLoss="1.13" rerouteNo="1" devices="tripinfo_505 routing_505" vType="truck" speedFactor="0.87" vaporized=""/>
    <tripinfo id="396" depart="96.00" departLane="721131967_0" departPos="43.57" departPosLat="0.00" departSpeed="12.44" departDelay="0.96" arrival="169.00" arrivalLane="721131966#0_1" arrivalPos="9.73" arrivalPosLat="0.00" arrivalSpeed="19.43" duration="73.00" routeLength="161.16" waitingTime="51.00" waitingCount="1" stopTime="0.00" timeLoss="60.73" rerouteNo="1" devices="tripinfo_396 routing_396" vType="truck" speedFactor="0.90" vaporized=""/>
    <tripinfo id="406" depart="98.00" departLane="-721131940_0" departPos="0.07" departPosLat="0.00" departSpeed="0.15" departDelay="0.56" arrival="169.00" arrivalLane="721131937#10_1" arrivalPos="532.93" arrivalPosLat="0.00" arrivalSpeed="21.55" duration="71.00" routeLength="1208.50" waitingTime="5.00" waitingCount="1" stopTime="0.00" timeLoss="14.09" rerouteNo="1" devices="tripinfo_406 routing_406" vType="car" speedFactor="0.87" vaporized=""/>
    <tripinfo id="436" depart="105.00" departLane="-442885355#2_0" departPos="28.29" departPosLat="0.00" departSpeed="10.32" departDelay="0.36" arrival="169.00" arrivalLane="-152227686#2_0" arrivalPos="4.01" arrivalPosLat="0.00" arrivalSpeed="12.69" duration="64.00" routeLength="413.63" waitingTime="10.00" waitingCount="1" stopTime="0.00" timeLoss="32.72" rerouteNo="1" devices="tripinfo_436 routing_436" vType="bus" speedFactor="0.91" vaporized=""/>