<?xml version="1.0" encoding="UTF-8"?>

<!-- generated on 2025-08-19 15:10:26 by Eclipse SUMO GUI Version 1.23.1
<sumoConfiguration xmlns:xsi="http://www.w3.org/2001/XMLSchema-instance" xsi:noNamespaceSchemaLocation="http://sumo.dlr.de/xsd/sumoConfiguration.xsd">

    <input>
        <net-file value="phuquoc.net.xml"/>
        <route-files value="phuquoc.rou.xml,phuquoc-demo.rou.xml"/>
        <additional-files value="detector.add.xml"/>
    </input>

    <output>
        <tripinfo-output value="../../output/tripinfo_baseline.xml"/>
        <vehroute-output value="../../output/vehroutes_baseline.xml"/>
        <edgedata-output value="../../output/edgedata_baseline.xml"/>
    </output>

    <time>
        <step-length value="0.1"/>
    </time>

    <processing>
        <lateral-resolution value="0.5"/>
        <ignore-route-errors value="true"/>
        <time-to-teleport value="50"/>
        <tls.actuated.jam-threshold value="30"/>
    </processing>

    <routing>
        <device.rerouting.adaptation-steps value="18"/>
        <device.rerouting.adaptation-interval value="10"/>
    </routing>

    <report>
        <verbose value="true"/>
        <duration-log.statistics value="true"/>
        <no-step-log value="true"/>
    </report>

    <gui_only>
        <gui-settings-file value="phuquoc.view.xml"/>
    </gui_only>

</sumoConfiguration>
-->

<tripinfos xmlns:xsi="http://www.w3.org/2001/XMLSchema-instance" xsi:noNamespaceSchemaLocation="http://sumo.dlr.de/xsd/tripinfo_file.xsd">
    <tripinfo id="41" depart="9.90" departLane="442885101#0_0" departPos="31.20" departPosLat="0.00" departSpeed="16.67" departDelay="0.06" arrival="41.00" arrivalLane="722464597#0_0" arrivalPos="57.54" arrivalPosLat="0.00" arrivalSpeed="16.50" duration="31.10" routeLength="417.43" waitingTime="0.00" waitingCount="0" stopTime="0.00" timeLoss="5.26" rerouteNo="1" devices="vehroute_41 tripinfo_41 routing_41" vType="motorbike" speedFactor="1.34" vaporized=""/>
    <tripinfo id="21" depart="5.10" departLane="-723990057#6_0" departPos="23.77" departPosLat="0.00" departSpeed="16.67" departDelay="0.06" arrival="41.10" arrivalLane="100954129#5_0" arrivalPos="156.84" arrivalPosLat="0.00" arrivalSpeed="15.36" duration="36.00" routeLength="465.00" waitingTime="0.00" waitingCount="0" stopTime="0.00" timeLoss="5.10" rerouteNo="1" devices="vehroute_21 tripinfo_21 routing_21" vType="motorbike" speedFactor="1.11" vaporized=""/>
    <tripinfo id="87" depart="20.90" departLane="721131946#9_2" departPos="14.70" departPosLat="0.00" departSpeed="16.67" departDelay="0.02" arrival="42.80" arrivalLane="-721131940_0" arrivalPos="0.22" arrivalPosLat="0.40" arrivalSpeed="6.76" duration="21.90" routeLength="271.47" waitingTime="0.00" waitingCount="0" stopTime="0.00" timeLoss="3.56" rerouteNo="1" devices="vehroute_87 tripinfo_87 routing_87" vType="motorbike" speedFactor="1.16" vaporized=""/>
    <tripinfo id="167" depart="40.10" departLane="721131963#3_1" departPos="372.35" departPosLat="0.00" departSpeed="22.22" departDelay="0.02" arrival="45.70" arrivalLane="721131963#3_1" arrivalPos="496.13" arrivalPosLat="0.00" arrivalSpeed="22.18" duration="5.60" routeLength="123.78" waitingTime="0.00" waitingCount="0" stopTime="0.00" timeLoss="0.01" rerouteNo="1" devices="vehroute_167 tripinfo_167 routing_167" vType="car" speedFactor="1.21" vaporized=""/>
    <tripinfo id="128" depart="30.80" departLane="-152227686#6_0" departPos="254.67" departPosLat="0.00" departSpeed="14.43" departDelay="0.08" arrival="49.00" arrivalLane="-722464598_0" arrivalPos="56.44" arrivalPosLat="0.00" arrivalSpeed="14.35" duration="18.20" routeLength="222.42" waitingTime="0.00" waitingCount="0" stopTime="0.00" timeLoss="1.99" rerouteNo="1" devices="vehroute_128 tripinfo_128 routing_128" vType="car" speedFactor="1.04" vaporized=""/>
    <tripinfo id="64" depart="15.40" departLane="721131967_0" departPos="7.12" departPosLat="0.00" departSpeed="4.94" departDelay="0.04" arrival="49.10" arrivalLane="721131960#4_0" arrivalPos="53.63" arrivalPosLat="-1.27" arrivalSpeed="4.88" duration="33.70" routeLength="165.36" waitingTime="0.00" waitingCount="0" stopTime="0.00" timeLoss="0.20" rerouteNo="1" devices="vehroute_64 tripinfo_64 routing_64" vType="DEFAULT_BIKETYPE" speedFactor="0.89" vaporized=""/>
    <tripinfo id="76" depart="18.30" departLane="152227686#1_0" departPos="2.02" departPosLat="0.00" departSpeed="14.33" departDelay="0.06" arrival="50.50" arrivalLane="155315711_0" arrivalPos="84.56" arrivalPosLat="0.00" arrivalSpeed="14.32" duration="32.20" routeLength="356.54" waitingTime="0.00" waitingCount="0" stopTime="0.00" timeLoss="7.62" rerouteNo="1" devices="vehroute_76 tripinfo_76 routing_76" vType="car" speedFactor="1.03" vaporized=""/>
    <tripinfo id="15" depart="3.60" departLane="721131946#9_2" departPos="34.01" departPosLat="0.00" departSpeed="19.44" departDelay="0.00" arrival="60.00" arrivalLane="721131937#8_0" arrivalPos="350.24" arrivalPosLat="-0.50" arrivalSpeed="19.44" duration="56.40" routeLength="888.94" waitingTime="0.00" waitingCount="0" stopTime="0.00" timeLoss="8.17" rerouteNo="1" devices="vehroute_15 tripinfo_15 routing_15" vType="truck" speedFactor="0.79" vaporized=""/>
    <tripinfo id="109" depart="26.20" departLane="-442885101#0_1" departPos="20.00" departPosLat="0.00" departSpeed="16.67" departDelay="0.04" arrival="62.30" arrivalLane="1056899464#1_0" arrivalPos="90.34" arrivalPosLat="0.00" arrivalSpeed="12.07" duration="36.10" routeLength="430.36" waitingTime="0.00" waitingCount="0" stopTime="0.00" timeLoss="2.25" rerouteNo="1" devices="vehroute_109 tripinfo_109 routing_109" vType="bus" speedFactor="0.87" vaporized=""/>
    <tripinfo id="24" depart="5.80" departLane="721126897#14_1" departPos="97.89" departPosLat="0.00" departSpeed="16.67" departDelay="0.04" arrival="69.30" arrivalLane="1149579536#7_0" arrivalPos="84.51" arrivalPosLat="0.00" arrivalSpeed="16.65" duration="63.50" routeLength="1052.29" waitingTime="0.00" waitingCount="0" stopTime="0.00" timeLoss="0.37" rerouteNo="1" devices="vehroute_24 tripinfo_24 routing_24" vType="motorbike" speedFactor="0.98" vaporized=""/>
    <tripinfo id="88" depart="21.20" departLane="-155315695#0_0" departPos="81.18" departPosLat="0.00" departSpeed="13.96" departDelay="0.08" arrival="72.00" arrivalLane="152227686#1_0" arrivalPos="19.86" arrivalPosLat="0.00" arrivalSpeed="9.01" duration="50.80" routeLength="590.76" waitingTime="0.00" waitingCount="0" stopTime="0.00" timeLoss="10.76" rerouteNo="1" devices="vehroute_88 tripinfo_88 routing_88" vType="motorbike" speedFactor="1.11" vaporized=""/>
    <tripinfo id="13" depart="3.20" departLane="-155315694#2_0" departPos="100.70" departPosLat="0.00" departSpeed="12.64" departDelay="0.08" arrival="76.60" arrivalLane="-155315693#2_0" arrivalPos="274.24" arrivalPosLat="0.00" arrivalSpeed="12.62" duration="73.40" routeLength="760.46" waitingTime="0.00" waitingCount="0" stopTime="0.00" timeLoss="10.56" rerouteNo="1" devices="vehroute_13 tripinfo_13 routing_13" vType="truck" speedFactor="0.91" vaporized=""/>
    <tripinfo id="197" depart="47.80" departLane="-100954129#0_0" departPos="3.98" departPosLat="0.00" departSpeed="12.52" departDelay="0.52" arrival="82.70" arrivalLane="100954129#4_0" arrivalPos="53.40" arrivalPosLat="0.00" arrivalSpeed="12.34" duration="34.90" routeLength="348.36" waitingTime="0.00" waitingCount="0" stopTime="0.00" timeLoss="5.92" rerouteNo="1" devices="vehroute_197 tripinfo_197 routing_197" vType="motorbike" speedFactor="0.90" vaporized=""/>
    <tripinfo id="339" depart="81.40" departLane="-722464597#2_0" departPos="0.32" departPosLat="0.00" departSpeed="13.88" departDelay="0.04" arrival="83.50" arrivalLane="-722464597#2_0" arrivalPos="28.36" arrivalPosLat="0.00" arrivalSpeed="13.80" duration="2.10" routeLength="28.04" waitingTime="0.00" waitingCount="0" stopTime="0.00" timeLoss="0.01" rerouteNo="1" devices="vehroute_339 tripinfo_339 routing_339" vType="car" speedFactor="1.00" vaporized=""/>
    <tripinfo id="36" depart="8.70" departLane="721131966#0_0" departPos="6.67" departPosLat="0.00" departSpeed="4.14" departDelay="0.06" arrival="84.60" arrivalLane="1119166765#12_0" arrivalPos="481.07" arrivalPosLat="0.00" arrivalSpeed="19.43" duration="75.90" routeLength="484.13" waitingTime="50.10" waitingCount="1" stopTime="0.00" timeLoss="51.36" rerouteNo="0" devices="vehroute_36 tripinfo_36 routing_36" vType="truck" speedFactor="1.00" vaporized=""/>
    <tripinfo id="244" depart="58.60" departLane="205021436#1_0" departPos="12.35" departPosLat="0.00" departSpeed="16.67" departDelay="0.04" arrival="89.40" arrivalLane="591704635#0_0" arrivalPos="394.13" arrivalPosLat="0.00" arrivalSpeed="16.60" duration="30.80" routeLength="508.87" waitingTime="0.00" waitingCount="0" stopTime="0.00" timeLoss="0.18" rerouteNo="0" devices="vehroute_244 tripinfo_244 routing_244" vType="motorbike" speedFactor="1.24" vaporized=""/>
    <tripinfo id="267" depart="64.10" departLane="721131937#1_2" departPos="198.29" departPosLat="0.00" departSpeed="16.67" departDelay="0.02" arrival="95.30" arrivalLane="721131946#15_0" arrivalPos="21.75" arrivalPosLat="1.48" arrivalSpeed="7.81" duration="31.20" routeLength="357.97" waitingTime="0.00" waitingCount="0" stopTime="0.00" timeLoss="7.95" rerouteNo="1" devices="vehroute_267 tripinfo_267 routing_267" vType="motorbike" speedFactor="0.95" vaporized=""/>
    <tripinfo id="10" depart="2.40" departLane="721131946#8_2" departPos="1.62" departPosLat="0.00" departSpeed="16.67" departDelay="0.00" arrival="96.70" arrivalLane="721131937#10_0" arrivalPos="532.93" arrivalPosLat="1.50" arrivalSpeed="16.66" duration="94.30" routeLength="1477.85" waitingTime="0.00" waitingCount="0" stopTime="0.00" timeLoss="3.97" rerouteNo="1" devices="vehroute_10 tripinfo_10 routing_10" vType="bus" speedFactor="0.99" vaporized=""/>
    <tripinfo id="230" depart="55.20" departLane="-155315678#5_0" departPos="172.91" departPosLat="0.00" departSpeed="22.22" departDelay="0.00" arrival="100.00" arrivalLane="100954129#2_0" arrivalPos="67.78" arrivalPosLat="-0.70" arrivalSpeed="14.35" duration="44.80" routeLength="174.27" waitingTime="27.60" waitingCount="1" stopTime="0.00" timeLoss="33.98" rerouteNo="0" devices="vehroute_230 tripinfo_230 routing_230" vType="car" speedFactor="1.03" vaporized=""/>
    <tripinfo id="72" depart="17.30" departLane="1270367191#2_0" departPos="3.60" departPosLat="0.00" departSpeed="5.43" departDelay="0.02" arrival="100.10" arrivalLane="-722464597#2_0" arrivalPos="28.36" arrivalPosLat="-1.27" arrivalSpeed="5.43" duration="82.80" routeLength="444.52" waitingTime="0.00" waitingCount="0" stopTime="0.00" timeLoss="0.56" rerouteNo="1" devices="vehroute_72 tripinfo_72 routing_72" vType="DEFAULT_BIKETYPE" speedFactor="0.98" vaporized=""/>
    <tripinfo id="34" depart="8.20" departLane="1119166765#1_2" departPos="353.92" departPosLat="0.00" departSpeed="13.44" departDelay="0.04" arrival="106.90" arrivalLane="-851342124_0" arrivalPos="1.47" arrivalPosLat="0.00" arrivalSpeed="6.95" duration="98.70" routeLength="1987.22" waitingTime="0.00" waitingCount="0" stopTime="0.00" timeLoss="6.70" rerouteNo="1" devices="vehroute_34 tripinfo_34 routing_34" vType="car" speedFactor="1.07" vaporized=""/>
    <tripinfo id="288" depart="69.20" departLane="155775198#5_0" departPos="8.53" departPosLat="0.00" departSpeed="22.22" departDelay="0.08" arrival="112.70" arrivalLane="152227697#3_0" arrivalPos="3.45" arrivalPosLat="0.00" arrivalSpeed="5.00" duration="43.50" routeLength="691.02" waitingTime="0.00" waitingCount="0" stopTime="0.00" timeLoss="6.43" rerouteNo="1" devices="vehroute_288 tripinfo_288 routing_288" vType="car" speedFactor="1.05" vaporized=""/>
    <tripinfo id="138" depart="33.20" departLane="-155315719#0_0" departPos="445.74" departPosLat="0.00" departSpeed="16.67" departDelay="0.08" arrival="114.40" arrivalLane="31905190#1_0" arrivalPos="179.04" arrivalPosLat="0.00" arrivalSpeed="15.15" duration="81.20" routeLength="1039.37" waitingTime="0.00" waitingCount="0" stopTime="0.00" timeLoss="12.65" rerouteNo="1" devices="vehroute_138 tripinfo_138 routing_138" vType="motorbike" speedFactor="1.10" vaporized=""/>
    <tripinfo id="55" depart="13.50" departLane="721131966#0_0" departPos="0.27" departPosLat="0.00" departSpeed="0.87" departDelay="0.30" arrival="115.30" arrivalLane="-850817946_0" arrivalPos="0.20" arrivalPosLat="-1.60" arrivalSpeed="0.00" duration="101.80" routeLength="9.66" waitingTime="94.50" waitingCount="2" stopTime="0.00" timeLoss="99.83" rerouteNo="0" devices="vehroute_55 tripinfo_55 routing_55" vType="DEFAULT_BIKETYPE" speedFactor="1.02" vaporized="teleport"/>
    <tripinfo id="263" depart="63.20" departLane="724005155#9_0" departPos="140.82" departPosLat="0.00" departSpeed="14.19" departDelay="0.08" arrival="116.80" arrivalLane="-721131956_0" arrivalPos="1.91" arrivalPosLat="0.06" arrivalSpeed="6.54" duration="53.60" routeLength="702.44" waitingTime="0.00" waitingCount="0" stopTime="0.00" timeLoss="7.57" rerouteNo="1" devices="vehroute_263 tripinfo_263 routing_263" vType="motorbike" speedFactor="1.02" vaporized=""/>
    <tripinfo id="140" depart="33.60" departLane="721131937#13_2" departPos="543.99" departPosLat="0.00" departSpeed="22.22" departDelay="0.00" arrival="117.40" arrivalLane="-721131962_0" arrivalPos="0.20" arrivalPosLat="0.00" arrivalSpeed="5.56" duration="83.80" routeLength="1757.60" waitingTime="0.00" waitingCount="0" stopTime="0.00" timeLoss="3.95" rerouteNo="1" devices="vehroute_140 tripinfo_140 routing_140" vType="car" speedFactor="0.81" vaporized=""/>
    <tripinfo id="184" depart="44.30" departLane="-100954129#0_0" departPos="42.63" departPosLat="0.00" departSpeed="0.43" departDelay="0.14" arrival="119.40" arrivalLane="723990057#5_0" arrivalPos="39.97" arrivalPosLat="0.21" arrivalSpeed="10.26" duration="75.10" routeLength="507.20" waitingTime="16.90" waitingCount="1" stopTime="0.00" timeLoss="33.77" rerouteNo="1" devices="vehroute_184 tripinfo_184 routing_184" vType="bus" speedFactor="0.91" vaporized=""/>
    <tripinfo id="471" depart="113.20" departLane="721131946#8_2" departPos="176.56" departPosLat="0.00" departSpeed="22.22" departDelay="0.16" arrival="120.20" arrivalLane="721131940_0" arrivalPos="0.22" arrivalPosLat="0.01" arrivalSpeed="6.07" duration="7.00" routeLength="99.45" waitingTime="0.00" waitingCount="0" stopTime="0.00" timeLoss="1.58" rerouteNo="0" devices="vehroute_471 tripinfo_471 routing_471" vType="car" speedFactor="1.03" vaporized=""/>
    <tripinfo id="79" depart="19.00" departLane="-723990057#7_0" departPos="15.53" departPosLat="0.00" departSpeed="19.44" departDelay="0.04" arrival="121.80" arrivalLane="-723990054_0" arrivalPos="61.78" arrivalPosLat="-0.50" arrivalSpeed="3.89" duration="102.80" routeLength="1203.48" waitingTime="12.60" waitingCount="1" stopTime="0.00" timeLoss="38.58" rerouteNo="1" devices="vehroute_79 tripinfo_79 routing_79" vType="truck" speedFactor="1.08" vaporized=""/>
    <tripinfo id="56" depart="13.50" departLane="155315680#0_0" departPos="27.71" departPosLat="0.00" departSpeed="16.67" departDelay="0.06" arrival="124.20" arrivalLane="-482169086#8_0" arrivalPos="1330.21" arrivalPosLat="-0.00" arrivalSpeed="16.63" duration="110.70" routeLength="1421.12" waitingTime="18.30" waitingCount="1" stopTime="0.00" timeLoss="24.87" rerouteNo="0" devices="vehroute_56 tripinfo_56 routing_56" vType="motorbike" speedFactor="1.26" vaporized=""/>
    <tripinfo id="245" depart="58.80" departLane="-723990057#2_0" departPos="68.17" departPosLat="0.00" departSpeed="22.22" departDelay="0.00" arrival="124.30" arrivalLane="-723990054_0" arrivalPos="61.78" arrivalPosLat="0.00" arrivalSpeed="7.23" duration="65.50" routeLength="857.02" waitingTime="0.00" waitingCount="0" stopTime="0.00" timeLoss="24.69" rerouteNo="1" devices="vehroute_245 tripinfo_245 routing_245" vType="car" speedFactor="1.13" vaporized=""/>
    <tripinfo id="66" depart="60.50" departLane="721131966#0_0" departPos="7.69" departPosLat="0.00" departSpeed="4.06" departDelay="44.66" arrival="125.80" arrivalLane="724005155#9_0" arrivalPos="156.61" arrivalPosLat="0.00" arrivalSpeed="14.64" duration="65.30" routeLength="158.65" waitingTime="53.70" waitingCount="1" stopTime="0.00" timeLoss="54.60" rerouteNo="0" devices="vehroute_66 tripinfo_66 routing_66" vType="motorbike" speedFactor="1.06" vaporized=""/>
    <tripinfo id="150" depart="36.00" departLane="722464597#2_0" departPos="8.75" departPosLat="0.00" departSpeed="16.29" departDelay="0.00" arrival="125.90" arrivalLane="31905181#0_0" arrivalPos="153.61" arrivalPosLat="0.00" arrivalSpeed="16.17" duration="89.90" routeLength="1086.96" waitingTime="3.30" waitingCount="4" stopTime="0.00" timeLoss="19.98" rerouteNo="1" devices="vehroute_150 tripinfo_150 routing_150" vType="motorbike" speedFactor="1.17" vaporized=""/>
    <tripinfo id="169" depart="40.60" departLane="152227691#13_0" departPos="106.67" departPosLat="0.00" departSpeed="16.67" departDelay="0.04" arrival="129.20" arrivalLane="1119166765#1_0" arrivalPos="369.98" arrivalPosLat="0.00" arrivalSpeed="16.60" duration="88.60" routeLength="1468.17" waitingTime="0.00" waitingCount="0" stopTime="0.00" timeLoss="0.53" rerouteNo="1" devices="vehroute_169 tripinfo_169 routing_169" vType="motorbike" speedFactor="0.88" vaporized=""/>
    <tripinfo id="118" depart="28.40" departLane="722464592_0" departPos="234.58" departPosLat="0.00" departSpeed="16.67" departDelay="0.08" arrival="129.30" arrivalLane="-724005155#9_0" arrivalPos="155.18" arrivalPosLat="0.00" arrivalSpeed="14.64" duration="100.90" routeLength="1445.08" waitingTime="0.00" waitingCount="0" stopTime="0.00" timeLoss="5.95" rerouteNo="1" devices="vehroute_118 tripinfo_118 routing_118" vType="motorbike" speedFactor="1.07" vaporized=""/>
    <tripinfo id="130" depart="31.20" departLane="721131968_0" departPos="4.89" departPosLat="0.00" departSpeed="10.13" departDelay="0.00" arrival="129.30" arrivalLane="722464591#3_0" arrivalPos="60.98" arrivalPosLat="0.00" arrivalSpeed="22.17" duration="98.10" routeLength="74.33" waitingTime="92.90" waitingCount="1" stopTime="0.00" timeLoss="94.85" rerouteNo="0" devices="vehroute_130 tripinfo_130 routing_130" vType="car" speedFactor="0.91" vaporized=""/>
    <tripinfo id="292" depart="70.10" departLane="721131968_0" departPos="6.02" departPosLat="0.00" departSpeed="5.10" departDelay="0.02" arrival="130.80" arrivalLane="-724005155#8_0" arrivalPos="135.43" arrivalPosLat="0.00" arrivalSpeed="16.56" duration="60.70" routeLength="147.65" waitingTime="50.10" waitingCount="1" stopTime="0.00" timeLoss="55.94" rerouteNo="0" devices="vehroute_292 tripinfo_292 routing_292" vType="motorbike" speedFactor="1.35" vaporized=""/>
    <tripinfo id="38" depart="9.70" departLane="722466950_0" departPos="2.77" departPosLat="0.00" departSpeed="3.88" departDelay="0.58" arrival="133.80" arrivalLane="152227691#4_0" arrivalPos="76.02" arrivalPosLat="0.00" arrivalSpeed="22.19" duration="124.10" routeLength="2040.70" waitingTime="0.00" waitingCount="0" stopTime="0.00" timeLoss="28.88" rerouteNo="1" devices="vehroute_38 tripinfo_38 routing_38" vType="car" speedFactor="0.94" vaporized=""/>
    <tripinfo id="270" depart="64.80" departLane="721131954#0_2" departPos="348.33" departPosLat="0.00" departSpeed="15.75" departDelay="0.00" arrival="134.60" arrivalLane="850475200_0" arrivalPos="670.68" arrivalPosLat="-0.00" arrivalSpeed="22.14" duration="69.80" routeLength="1191.55" waitingTime="0.00" waitingCount="0" stopTime="0.00" timeLoss="14.44" rerouteNo="1" devices="vehroute_270 tripinfo_270 routing_270" vType="car" speedFactor="1.14" vaporized=""/>
    <tripinfo id="422" depart="101.90" departLane="721131961_0" departPos="0.04" departPosLat="0.00" departSpeed="0.99" departDelay="0.62" arrival="137.60" arrivalLane="721131963#3_0" arrivalPos="496.13" arrivalPosLat="0.50" arrivalSpeed="16.56" duration="35.70" routeLength="514.41" waitingTime="0.00" waitingCount="0" stopTime="0.00" timeLoss="3.29" rerouteNo="1" devices="vehroute_422 tripinfo_422 routing_422" vType="motorbike" speedFactor="1.13" vaporized=""/>
    <tripinfo id="357" depart="85.70" departLane="152227697#4_0" departPos="201.83" departPosLat="0.00" departSpeed="19.98" departDelay="0.02" arrival="142.70" arrivalLane="-152227697#2_0" arrivalPos="220.61" arrivalPosLat="0.00" arrivalSpeed="19.95" duration="57.00" routeLength="985.63" waitingTime="0.00" waitingCount="0" stopTime="0.00" timeLoss="6.45" rerouteNo="1" devices="vehroute_357 tripinfo_357 routing_357" vType="car" speedFactor="0.90" vaporized=""/>
    <tripinfo id="419" depart="100.60" departLane="152227691#5_1" departPos="74.21" departPosLat="0.00" departSpeed="16.67" departDelay="0.04" arrival="147.10" arrivalLane="850817945_0" arrivalPos="0.20" arrivalPosLat="0.40" arrivalSpeed="4.23" duration="46.50" routeLength="195.60" waitingTime="22.90" waitingCount="1" stopTime="0.00" timeLoss="33.35" rerouteNo="1" devices="vehroute_419 tripinfo_419 routing_419" vType="motorbike" speedFactor="1.16" vaporized=""/>
    <tripinfo id="476" depart="114.30" departLane="850699983#1_0" departPos="58.87" departPosLat="0.00" departSpeed="4.93" departDelay="0.06" arrival="148.80" arrivalLane="721131953_0" arrivalPos="0.20" arrivalPosLat="0.00" arrivalSpeed="9.55" duration="34.50" routeLength="31.62" waitingTime="27.00" waitingCount="1" stopTime="0.00" timeLoss="32.17" rerouteNo="0" devices="vehroute_476 tripinfo_476 routing_476" vType="car" speedFactor="1.00" vaporized=""/>
    <tripinfo id="196" depart="47.10" departLane="1056899464#2_0" departPos="24.99" departPosLat="0.00" departSpeed="14.28" departDelay="0.06" arrival="153.30" arrivalLane="31905181#1_0" arrivalPos="336.34" arrivalPosLat="0.00" arrivalSpeed="14.22" duration="106.20" routeLength="1396.80" waitingTime="0.00" waitingCount="0" stopTime="0.00" timeLoss="21.18" rerouteNo="1" devices="vehroute_196 tripinfo_196 routing_196" vType="car" speedFactor="1.03" vaporized=""/>
    <tripinfo id="92" depart="22.10" departLane="1149580107#3_1" departPos="16.41" departPosLat="0.00" departSpeed="20.99" departDelay="0.02" arrival="153.40" arrivalLane="1149579534_0" arrivalPos="0.22" arrivalPosLat="0.00" arrivalSpeed="2.78" duration="131.30" routeLength="1491.11" waitingTime="44.80" waitingCount="1" stopTime="0.00" timeLoss="54.86" rerouteNo="1" devices="vehroute_92 tripinfo_92 routing_92" vType="car" speedFactor="0.76" vaporized=""/>
    <tripinfo id="63" depart="15.20" departLane="-1117528626#1_0" departPos="150.86" departPosLat="0.00" departSpeed="16.67" departDelay="0.08" arrival="154.30" arrivalLane="723990057#7_0" arrivalPos="41.79" arrivalPosLat="0.00" arrivalSpeed="11.50" duration="139.10" routeLength="855.11" waitingTime="68.30" waitingCount="4" stopTime="0.00" timeLoss="85.16" rerouteNo="1" devices="vehroute_63 tripinfo_63 routing_63" vType="motorbike" speedFactor="1.12" vaporized=""/>
    <tripinfo id="436" depart="104.70" departLane="-442885359#0_0" departPos="34.29" departPosLat="0.00" departSpeed="10.61" departDelay="0.06" arrival="154.30" arrivalLane="-152227686#6_0" arrivalPos="288.93" arrivalPosLat="0.00" arrivalSpeed="10.59" duration="49.60" routeLength="481.93" waitingTime="0.00" waitingCount="0" stopTime="0.00" timeLoss="10.12" rerouteNo="1" devices="vehroute_436 tripinfo_436 routing_436" vType="car" speedFactor="0.76" vaporized=""/>
    <tripinfo id="409" depart="98.20" departLane="721131937#8_0" departPos="84.49" departPosLat="0.00" departSpeed="22.22" departDelay="0.04" arrival="156.80" arrivalLane="721131937#12_0" arrivalPos="461.87" arrivalPosLat="0.00" arrivalSpeed="22.19" duration="58.60" routeLength="1297.04" waitingTime="0.00" waitingCount="0" stopTime="0.00" timeLoss="0.14" rerouteNo="1" devices="vehroute_409 tripinfo_409 routing_409" vType="car" speedFactor="0.87" vaporized=""/>
    <tripinfo id="423" depart="101.60" departLane="1149579537#2_0" departPos="116.09" departPosLat="0.00" departSpeed="22.22" departDelay="0.08" arrival="158.50" arrivalLane="1119166765#3_0" arrivalPos="305.86" arrivalPosLat="0.00" arrivalSpeed="22.13" duration="56.90" routeLength="1222.76" waitingTime="0.00" waitingCount="0" stopTime="0.00" timeLoss="1.84" rerouteNo="1" devices="vehroute_423 tripinfo_423 routing_423" vType="car" speedFactor="1.11" vaporized=""/>
    <tripinfo id="406" depart="126.00" departLane="-721131941_0" departPos="0.12" departPosLat="0.00" departSpeed="0.62" departDelay="28.56" arrival="158.90" arrivalLane="721131937#10_1" arrivalPos="532.93" arrivalPosLat="0.00" arrivalSpeed="22.15" duration="32.90" routeLength="565.43" waitingTime="0.20" waitingCount="1" stopTime="0.00" timeLoss="5.71" rerouteNo="1" devices="vehroute_406 tripinfo_406 routing_406" vType="car" speedFactor="1.09" vaporized=""/>
    <tripinfo id="363" depart="87.20" departLane="721131934#1_1" departPos="113.36" departPosLat="0.00" departSpeed="22.22" departDelay="0.08" arrival="159.90" arrivalLane="-851342126_0" arrivalPos="1.16" arrivalPosLat="0.00" arrivalSpeed="6.26" duration="72.70" routeLength="405.18" waitingTime="38.50" waitingCount="1" stopTime="0.00" timeLoss="53.55" rerouteNo="1" devices="vehroute_363 tripinfo_363 routing_363" vType="car" speedFactor="1.00" vaporized=""/>
    <tripinfo id="378" depart="90.80" departLane="205021436#0_0" departPos="413.76" departPosLat="0.00" departSpeed="16.67" departDelay="0.08" arrival="160.00" arrivalLane="1149581388_0" arrivalPos="137.46" arrivalPosLat="0.00" arrivalSpeed="16.52" duration="69.20" routeLength="287.22" waitingTime="50.10" waitingCount="1" stopTime="0.00" timeLoss="52.07" rerouteNo="0" devices="vehroute_378 tripinfo_378 routing_378" vType="motorbike" speedFactor="1.15" vaporized=""/>
    <tripinfo id="95" depart="22.80" departLane="1270367191#0_0" departPos="148.00" departPosLat="0.00" departSpeed="5.62" departDelay="0.00" arrival="160.60" arrivalLane="-934270764_0" arrivalPos="80.67" arrivalPosLat="-1.27" arrivalSpeed="5.57" duration="137.80" routeLength="736.27" waitingTime="1.50" waitingCount="1" stopTime="0.00" timeLoss="6.44" rerouteNo="1" devices="vehroute_95 tripinfo_95 routing_95" vType="DEFAULT_BIKETYPE" speedFactor="1.01" vaporized=""/>
    <tripinfo id="52" depart="12.50" departLane="-851342124_0" departPos="0.85" departPosLat="0.00" departSpeed="2.13" departDelay="0.02" arrival="163.90" arrivalLane="721126897#15_0" arrivalPos="21.55" arrivalPosLat="-0.00" arrivalSpeed="16.66" duration="151.40" routeLength="2337.66" waitingTime="0.00" waitingCount="0" stopTime="0.00" timeLoss="8.37" rerouteNo="1" devices="vehroute_52 tripinfo_52 routing_52" vType="motorbike" speedFactor="0.94" vaporized=""/>
    <tripinfo id="214" depart="51.40" departLane="721131937#9_2" departPos="0.69" departPosLat="0.00" departSpeed="19.44" departDelay="0.04" arrival="164.80" arrivalLane="721131946#2_0" arrivalPos="469.55" arrivalPosLat="1.18" arrivalSpeed="19.41" duration="113.40" routeLength="1508.73" waitingTime="14.80" waitingCount="1" stopTime="0.00" timeLoss="33.00" rerouteNo="1" devices="vehroute_214 tripinfo_214 routing_214" vType="truck" speedFactor="0.74" vaporized=""/>
    <tripinfo id="654" depart="157.10" departLane="1149579536#5_1" departPos="216.43" departPosLat="0.00" departSpeed="16.67" departDelay="0.14" arrival="164.80" arrivalLane="1149579536#7_1" arrivalPos="84.51" arrivalPosLat="0.00" arrivalSpeed="16.57" duration="7.70" routeLength="127.30" waitingTime="0.00" waitingCount="0" stopTime="0.00" timeLoss="0.05" rerouteNo="0" devices="vehroute_654 tripinfo_654 routing_654" vType="motorbike" speedFactor="1.25" vaporized=""/>
    <tripinfo id="148" depart="35.60" departLane="1307054560#1_0" departPos="4.20" departPosLat="0.00" departSpeed="16.67" departDelay="0.08" arrival="164.90" arrivalLane="-100954129#5_0" arrivalPos="159.26" arrivalPosLat="-0.00" arrivalSpeed="14.22" duration="129.30" routeLength="929.10" waitingTime="56.20" waitingCount="2" stopTime="0.00" timeLoss="69.22" rerouteNo="1" devices="vehroute_148 tripinfo_148 routing_148" vType="motorbike" speedFactor="1.02" vaporized=""/>
    <tripinfo id="146" depart="35.10" departLane="721126897#14_1" departPos="90.39" departPosLat="0.00" departSpeed="16.67" departDelay="0.06" arrival="166.70" arrivalLane="-850817945_0" arrivalPos="0.20" arrivalPosLat="0.30" arrivalSpeed="3.98" duration="131.60" routeLength="1937.79" waitingTime="2.30" waitingCount="1" stopTime="0.00" timeLoss="13.76" rerouteNo="1" devices="vehroute_146 tripinfo_146 routing_146" vType="motorbike" speedFactor="1.14" vaporized=""/>
    <tripinfo id="505" depart="121.20" departLane="721126897#7_2" departPos="418.48" departPosLat="0.00" departSpeed="22.22" departDelay="0.00" arrival="167.00" arrivalLane="721126897#15_0" arrivalPos="21.55" arrivalPosLat="0.00" arrivalSpeed="22.17" duration="45.80" routeLength="932.00" waitingTime="0.00" waitingCount="0" stopTime="0.00" timeLoss="3.85" rerouteNo="1" devices="vehroute_505 tripinfo_505 routing_505" vType="car" speedFactor="0.88" vaporized=""/>
    <tripinfo id="604" depart="145.00" departLane="-442885357_0" departPos="162.50" departPosLat="0.00" departSpeed="16.67" departDelay="0.04" arrival="168.60" arrivalLane="155315695#0_0" arrivalPos="105.20" arrivalPosLat="0.00" arrivalSpeed="13.68" duration="23.60" routeLength="322.13" waitingTime="0.00" waitingCount="0" stopTime="0.00" timeLoss="2.04" rerouteNo="1" devices="vehroute_604 tripinfo_604 routing_604" vType="motorbike" speedFactor="0.99" vaporized=""/>
    <tripinfo id="121" depart="29.10" departLane="155315695#4_0" departPos="27.59" departPosLat="0.00" departSpeed="12.64" departDelay="0.06" arrival="169.10" arrivalLane="724005148_0" arrivalPos="141.51" arrivalPosLat="0.00" arrivalSpeed="5.62" duration="140.00" routeLength="1570.69" waitingTime="0.00" waitingCount="0" stopTime="0.00" timeLoss="18.21" rerouteNo="1" devices="vehroute_121 tripinfo_121 routing_121" vType="bus" speedFactor="1.01" vaporized=""/>