<?xml version="1.0" encoding="UTF-8"?>

<!-- generated on 2025-08-19 16:26:27 by Eclipse SUMO GUI Version 1.23.1
<sumoConfiguration xmlns:xsi="http://www.w3.org/2001/XMLSchema-instance" xsi:noNamespaceSchemaLocation="http://sumo.dlr.de/xsd/sumoConfiguration.xsd">

    <input>
        <net-file value="PhuQuoc/phuquoc.net.xml"/>
        <route-files value="PhuQuoc/phuquoc.rou.xml,PhuQuoc/phuquoc-demo.rou.xml"/>
        <additional-files value="PhuQuoc/detector.add.xml"/>
    </input>

    <output>
        <tripinfo-output value="D:\He_thong_giao_thong_thich_ung\Algorithms_code\PC_Algorithms\output\tripinfo.xml"/>
        <vehroute-output value="D:\He_thong_giao_thong_thich_ung\Algorithms_code\PC_Algorithms\output\vehroutes.xml"/>
        <edgedata-output value="D:\He_thong_giao_thong_thich_ung\Algorithms_code\PC_Algorithms\output\edgedata.xml"/>
    </output>

    <time>
        <step-length value="1"/>
    </time>

    <processing>
        <lateral-resolution value="0.5"/>
        <ignore-route-errors value="true"/>
        <time-to-teleport value="50"/>
        <tls.actuated.jam-threshold value="30"/>
    </processing>

    <routing>
        <device.rerouting.adaptation-steps value="18"/>
        <device.rerouting.adaptation-interval value="10"/>
    </routing>

    <report>
        <verbose value="true"/>
        <duration-log.statistics value="true"/>
        <no-step-log value="true"/>
    </report>

    <traci_server>
        <remote-port value="8814"/>
    </traci_server>

    <gui_only>
        <gui-settings-file value="PhuQuoc/phuquoc.view.xml"/>
        <start value="true"/>
    </gui_only>

</sumoConfiguration>
-->

<tripinfos xmlns:xsi="http://www.w3.org/2001/XMLSchema-instance" xsi:noNamespaceSchemaLocation="http://sumo.dlr.de/xsd/tripinfo_file.xsd">
    <tripinfo id="41" depart="10.00" departLane="442885101#0_0" departPos="124.68" departPosLat="0.00" departSpeed="16.67" departDelay="0.16" arrival="39.00" arrivalLane="722464597#0_0" arrivalPos="57.54" arrivalPosLat="0.00" arrivalSpeed="14.75" duration="29.00" routeLength="323.95" waitingTime="0.00" waitingCount="0" stopTime="0.00" timeLoss="8.43" rerouteNo="1" devices="vehroute_41 tripinfo_41 routing_41" vType="motorbike" speedFactor="1.34" vaporized=""/>
    <tripinfo id="87" depart="21.00" departLane="721131946#9_2" departPos="63.35" departPosLat="0.00" departSpeed="16.67" departDelay="0.12" arrival="42.00" arrivalLane="-721131940_0" arrivalPos="0.22" arrivalPosLat="1.20" arrivalSpeed="6.22" duration="21.00" routeLength="222.82" waitingTime="0.00" waitingCount="0" stopTime="0.00" timeLoss="5.97" rerouteNo="1" devices="vehroute_87 tripinfo_87 routing_87" vType="motorbike" speedFactor="1.16" vaporized=""/>
    <tripinfo id="21" depart="6.00" departLane="-723990057#6_0" departPos="23.77" departPosLat="0.00" departSpeed="16.67" departDelay="0.96" arrival="45.00" arrivalLane="100954129#5_0" arrivalPos="156.84" arrivalPosLat="0.00" arrivalSpeed="14.79" duration="39.00" routeLength="465.00" waitingTime="0.00" waitingCount="0" stopTime="0.00" timeLoss="8.33" rerouteNo="1" devices="vehroute_21 tripinfo_21 routing_21" vType="motorbike" speedFactor="1.11" vaporized=""/>
    <tripinfo id="167" depart="41.00" departLane="721131963#3_1" departPos="366.66" departPosLat="0.00" departSpeed="22.22" departDelay="0.92" arrival="47.00" arrivalLane="721131963#3_1" arrivalPos="496.13" arrivalPosLat="0.00" arrivalSpeed="21.65" duration="6.00" routeLength="129.47" waitingTime="0.00" waitingCount="0" stopTime="0.00" timeLoss="0.14" rerouteNo="1" devices="vehroute_167 tripinfo_167 routing_167" vType="car" speedFactor="1.21" vaporized=""/>
    <tripinfo id="64" depart="16.00" departLane="721131967_0" departPos="14.81" departPosLat="0.00" departSpeed="4.94" departDelay="0.64" arrival="51.00" arrivalLane="721131960#4_0" arrivalPos="53.63" arrivalPosLat="-1.27" arrivalSpeed="4.38" duration="35.00" routeLength="157.67" waitingTime="0.00" waitingCount="0" stopTime="0.00" timeLoss="2.30" rerouteNo="1" devices="vehroute_64 tripinfo_64 routing_64" vType="DEFAULT_BIKETYPE" speedFactor="0.89" vaporized=""/>
    <tripinfo id="76" depart="19.00" departLane="152227686#1_0" departPos="8.41" departPosLat="0.00" departSpeed="14.33" departDelay="0.76" arrival="53.00" arrivalLane="155315711_0" arrivalPos="84.56" arrivalPosLat="0.00" arrivalSpeed="13.37" duration="34.00" routeLength="350.15" waitingTime="0.00" waitingCount="0" stopTime="0.00" timeLoss="9.54" rerouteNo="1" devices="vehroute_76 tripinfo_76 routing_76" vType="car" speedFactor="1.03" vaporized=""/>
    <tripinfo id="128" depart="31.00" departLane="-152227686#6_0" departPos="119.00" departPosLat="0.00" departSpeed="14.43" departDelay="0.28" arrival="61.00" arrivalLane="-722464598_0" arrivalPos="56.44" arrivalPosLat="0.00" arrivalSpeed="13.81" duration="30.00" routeLength="358.09" waitingTime="0.00" waitingCount="0" stopTime="0.00" timeLoss="3.96" rerouteNo="1" devices="vehroute_128 tripinfo_128 routing_128" vType="car" speedFactor="1.04" vaporized=""/>
    <tripinfo id="109" depart="27.00" departLane="-442885101#0_1" departPos="86.37" departPosLat="0.00" departSpeed="16.67" departDelay="0.84" arrival="63.00" arrivalLane="1056899464#1_0" arrivalPos="90.34" arrivalPosLat="0.35" arrivalSpeed="11.87" duration="36.00" routeLength="363.99" waitingTime="0.00" waitingCount="0" stopTime="0.00" timeLoss="6.12" rerouteNo="1" devices="vehroute_109 tripinfo_109 routing_109" vType="bus" speedFactor="0.87" vaporized=""/>
    <tripinfo id="15" depart="4.00" departLane="721131946#9_2" departPos="34.01" departPosLat="0.00" departSpeed="19.44" departDelay="0.40" arrival="64.00" arrivalLane="721131937#8_1" arrivalPos="350.24" arrivalPosLat="-0.00" arrivalSpeed="19.39" duration="60.00" routeLength="888.94" waitingTime="0.00" waitingCount="0" stopTime="0.00" timeLoss="11.88" rerouteNo="1" devices="vehroute_15 tripinfo_15 routing_15" vType="truck" speedFactor="0.79" vaporized=""/>
    <tripinfo id="24" depart="6.00" departLane="721126897#14_1" departPos="97.89" departPosLat="0.00" departSpeed="16.67" departDelay="0.24" arrival="74.00" arrivalLane="1149579536#7_0" arrivalPos="84.51" arrivalPosLat="0.00" arrivalSpeed="15.26" duration="68.00" routeLength="1052.29" waitingTime="0.00" waitingCount="0" stopTime="0.00" timeLoss="4.45" rerouteNo="1" devices="vehroute_24 tripinfo_24 routing_24" vType="motorbike" speedFactor="0.98" vaporized=""/>
    <tripinfo id="13" depart="4.00" departLane="-155315694#2_0" departPos="100.70" departPosLat="0.00" departSpeed="12.64" departDelay="0.88" arrival="80.00" arrivalLane="-155315693#2_0" arrivalPos="274.24" arrivalPosLat="0.00" arrivalSpeed="12.45" duration="76.00" routeLength="760.46" waitingTime="0.00" waitingCount="0" stopTime="0.00" timeLoss="12.96" rerouteNo="1" devices="vehroute_13 tripinfo_13 routing_13" vType="truck" speedFactor="0.91" vaporized=""/>
    <tripinfo id="88" depart="22.00" departLane="-155315695#0_0" departPos="47.19" departPosLat="0.00" departSpeed="15.37" departDelay="0.88" arrival="83.00" arrivalLane="152227686#1_0" arrivalPos="19.86" arrivalPosLat="0.00" arrivalSpeed="10.53" duration="61.00" routeLength="624.75" waitingTime="0.00" waitingCount="0" stopTime="0.00" timeLoss="18.51" rerouteNo="1" devices="vehroute_88 tripinfo_88 routing_88" vType="motorbike" speedFactor="1.11" vaporized=""/>
    <tripinfo id="292" depart="73.00" departLane="721131968_0" departPos="9.54" departPosLat="0.00" departSpeed="3.99" departDelay="2.92" arrival="83.00" arrivalLane="-724005155#8_0" arrivalPos="135.43" arrivalPosLat="0.00" arrivalSpeed="14.91" duration="10.00" routeLength="144.13" waitingTime="0.00" waitingCount="0" stopTime="0.00" timeLoss="1.42" rerouteNo="0" devices="vehroute_292 tripinfo_292 routing_292" vType="motorbike" speedFactor="1.35" vaporized=""/>
    <tripinfo id="339" depart="82.00" departLane="-722464597#2_0" departPos="16.88" departPosLat="0.00" departSpeed="13.88" departDelay="0.64" arrival="83.00" arrivalLane="-722464597#2_0" arrivalPos="28.36" arrivalPosLat="0.00" arrivalSpeed="13.45" duration="1.00" routeLength="11.48" waitingTime="0.00" waitingCount="0" stopTime="0.00" timeLoss="0.03" rerouteNo="1" devices="vehroute_339 tripinfo_339 routing_339" vType="car" speedFactor="1.00" vaporized=""/>
    <tripinfo id="36" depart="9.00" departLane="721131966#0_0" departPos="6.67" departPosLat="0.00" departSpeed="3.03" departDelay="0.36" arrival="87.00" arrivalLane="1119166765#12_0" arrivalPos="481.07" arrivalPosLat="0.00" arrivalSpeed="19.23" duration="78.00" routeLength="484.13" waitingTime="51.00" waitingCount="1" stopTime="0.00" timeLoss="53.03" rerouteNo="0" devices="vehroute_36 tripinfo_36 routing_36" vType="truck" speedFactor="1.00" vaporized=""/>
    <tripinfo id="197" depart="48.00" departLane="-100954129#0_0" departPos="20.02" departPosLat="0.00" departSpeed="8.54" departDelay="0.72" arrival="87.00" arrivalLane="100954129#4_0" arrivalPos="53.40" arrivalPosLat="0.00" arrivalSpeed="11.05" duration="39.00" routeLength="332.32" waitingTime="0.00" waitingCount="0" stopTime="0.00" timeLoss="10.77" rerouteNo="1" devices="vehroute_197 tripinfo_197 routing_197" vType="motorbike" speedFactor="0.90" vaporized=""/>
    <tripinfo id="130" depart="32.00" departLane="721131968_0" departPos="14.94" departPosLat="0.00" departSpeed="3.29" departDelay="0.80" arrival="88.00" arrivalLane="722464591#3_0" arrivalPos="60.98" arrivalPosLat="0.00" arrivalSpeed="22.15" duration="56.00" routeLength="64.28" waitingTime="51.00" waitingCount="1" stopTime="0.00" timeLoss="52.87" rerouteNo="0" devices="vehroute_130 tripinfo_130 routing_130" vType="car" speedFactor="0.91" vaporized=""/>
    <tripinfo id="244" depart="59.00" departLane="205021436#1_0" departPos="55.59" departPosLat="0.00" departSpeed="16.67" departDelay="0.44" arrival="89.00" arrivalLane="591704635#0_0" arrivalPos="394.13" arrivalPosLat="0.00" arrivalSpeed="16.62" duration="30.00" routeLength="465.63" waitingTime="0.00" waitingCount="0" stopTime="0.00" timeLoss="1.71" rerouteNo="0" devices="vehroute_244 tripinfo_244 routing_244" vType="motorbike" speedFactor="1.24" vaporized=""/>
    <tripinfo id="10" depart="3.00" departLane="721131946#8_2" departPos="1.62" departPosLat="0.00" departSpeed="16.67" departDelay="0.60" arrival="99.00" arrivalLane="721131937#10_0" arrivalPos="532.93" arrivalPosLat="0.20" arrivalSpeed="16.34" duration="96.00" routeLength="1477.85" waitingTime="0.00" waitingCount="0" stopTime="0.00" timeLoss="5.13" rerouteNo="1" devices="vehroute_10 tripinfo_10 routing_10" vType="bus" speedFactor="0.99" vaporized=""/>
    <tripinfo id="230" depart="56.00" departLane="-155315678#5_0" departPos="162.96" departPosLat="0.00" departSpeed="22.22" departDelay="0.80" arrival="99.00" arrivalLane="100954129#2_0" arrivalPos="67.78" arrivalPosLat="-0.70" arrivalSpeed="13.99" duration="43.00" routeLength="184.22" waitingTime="25.00" waitingCount="1" stopTime="0.00" timeLoss="31.44" rerouteNo="0" devices="vehroute_230 tripinfo_230 routing_230" vType="car" speedFactor="1.03" vaporized=""/>
    <tripinfo id="267" depart="65.00" departLane="721131937#1_2" departPos="66.12" departPosLat="0.00" departSpeed="16.67" departDelay="0.92" arrival="103.00" arrivalLane="721131946#15_0" arrivalPos="21.75" arrivalPosLat="1.65" arrivalSpeed="8.40" duration="38.00" routeLength="490.14" waitingTime="0.00" waitingCount="0" stopTime="0.00" timeLoss="6.74" rerouteNo="1" devices="vehroute_267 tripinfo_267 routing_267" vType="motorbike" speedFactor="0.95" vaporized=""/>
    <tripinfo id="72" depart="18.00" departLane="1270367191#2_0" departPos="2.97" departPosLat="0.00" departSpeed="5.43" departDelay="0.72" arrival="106.00" arrivalLane="-722464597#2_0" arrivalPos="28.36" arrivalPosLat="-1.27" arrivalSpeed="5.37" duration="88.00" routeLength="445.15" waitingTime="0.00" waitingCount="0" stopTime="0.00" timeLoss="4.88" rerouteNo="1" devices="vehroute_72 tripinfo_72 routing_72" vType="DEFAULT_BIKETYPE" speedFactor="0.98" vaporized=""/>
    <tripinfo id="92" depart="23.00" departLane="1149580107#3_1" departPos="25.51" departPosLat="0.00" departSpeed="19.56" departDelay="0.92" arrival="112.00" arrivalLane="1149579534_0" arrivalPos="0.22" arrivalPosLat="0.00" arrivalSpeed="2.51" duration="89.00" routeLength="1482.01" waitingTime="0.00" waitingCount="0" stopTime="0.00" timeLoss="13.53" rerouteNo="1" devices="vehroute_92 tripinfo_92 routing_92" vType="car" speedFactor="0.76" vaporized=""/>
    <tripinfo id="79" depart="19.00" departLane="-723990057#7_0" departPos="21.43" departPosLat="0.00" departSpeed="19.44" departDelay="0.04" arrival="113.00" arrivalLane="-723990054_0" arrivalPos="61.78" arrivalPosLat="0.00" arrivalSpeed="8.64" duration="94.00" routeLength="1197.58" waitingTime="13.00" waitingCount="1" stopTime="0.00" timeLoss="30.72" rerouteNo="1" devices="vehroute_79 tripinfo_79 routing_79" vType="truck" speedFactor="1.08" vaporized=""/>
    <tripinfo id="245" depart="59.00" departLane="-723990057#2_0" departPos="108.39" departPosLat="0.00" departSpeed="22.22" departDelay="0.20" arrival="115.00" arrivalLane="-723990054_0" arrivalPos="61.78" arrivalPosLat="0.00" arrivalSpeed="12.27" duration="56.00" routeLength="816.80" waitingTime="0.00" waitingCount="0" stopTime="0.00" timeLoss="16.71" rerouteNo="1" devices="vehroute_245 tripinfo_245 routing_245" vType="car" speedFactor="1.13" vaporized=""/>
    <tripinfo id="55" depart="21.00" departLane="721131966#0_0" departPos="0.23" departPosLat="0.00" departSpeed="1.00" departDelay="7.80" arrival="118.00" arrivalLane="-850817946_0" arrivalPos="0.20" arrivalPosLat="-1.60" arrivalSpeed="0.00" duration="97.00" routeLength="9.70" waitingTime="91.00" waitingCount="2" stopTime="0.00" timeLoss="94.32" rerouteNo="0" devices="vehroute_55 tripinfo_55 routing_55" vType="DEFAULT_BIKETYPE" speedFactor="1.02" vaporized="teleport"/>
    <tripinfo id="150" depart="36.00" departLane="722464597#2_0" departPos="5.54" departPosLat="0.00" departSpeed="16.29" departDelay="0.00" arrival="124.00" arrivalLane="31905181#0_0" arrivalPos="153.61" arrivalPosLat="0.00" arrivalSpeed="15.77" duration="88.00" routeLength="1090.17" waitingTime="0.00" waitingCount="0" stopTime="0.00" timeLoss="16.69" rerouteNo="1" devices="vehroute_150 tripinfo_150 routing_150" vType="motorbike" speedFactor="1.17" vaporized=""/>
    <tripinfo id="34" depart="9.00" departLane="1119166765#1_2" departPos="353.92" departPosLat="0.00" departSpeed="12.24" departDelay="0.84" arrival="128.00" arrivalLane="-851342124_0" arrivalPos="1.47" arrivalPosLat="0.70" arrivalSpeed="6.48" duration="119.00" routeLength="1987.22" waitingTime="5.00" waitingCount="1" stopTime="0.00" timeLoss="26.30" rerouteNo="1" devices="vehroute_34 tripinfo_34 routing_34" vType="car" speedFactor="1.07" vaporized=""/>
    <tripinfo id="56" depart="14.00" departLane="155315680#0_0" departPos="16.74" departPosLat="0.00" departSpeed="16.67" departDelay="0.56" arrival="128.00" arrivalLane="-482169086#8_0" arrivalPos="1330.21" arrivalPosLat="0.00" arrivalSpeed="16.54" duration="114.00" routeLength="1432.09" waitingTime="15.00" waitingCount="1" stopTime="0.00" timeLoss="27.56" rerouteNo="0" devices="vehroute_56 tripinfo_56 routing_56" vType="motorbike" speedFactor="1.26" vaporized=""/>
    <tripinfo id="263" depart="64.00" departLane="724005155#9_0" departPos="18.73" departPosLat="0.00" departSpeed="14.19" departDelay="0.88" arrival="128.00" arrivalLane="-721131956_0" arrivalPos="1.91" arrivalPosLat="0.20" arrivalSpeed="5.85" duration="64.00" routeLength="824.53" waitingTime="0.00" waitingCount="0" stopTime="0.00" timeLoss="9.27" rerouteNo="1" devices="vehroute_263 tripinfo_263 routing_263" vType="motorbike" speedFactor="1.02" vaporized=""/>
    <tripinfo id="471" depart="114.00" departLane="721131946#8_2" departPos="36.24" departPosLat="0.00" departSpeed="22.22" departDelay="0.96" arrival="128.00" arrivalLane="721131940_0" arrivalPos="0.22" arrivalPosLat="0.70" arrivalSpeed="5.15" duration="14.00" routeLength="239.77" waitingTime="0.00" waitingCount="0" stopTime="0.00" timeLoss="2.50" rerouteNo="0" devices="vehroute_471 tripinfo_471 routing_471" vType="car" speedFactor="1.03" vaporized=""/>
    <tripinfo id="476" depart="115.00" departLane="850699983#1_0" departPos="36.48" departPosLat="0.00" departSpeed="13.89" departDelay="0.76" arrival="128.00" arrivalLane="721131953_0" arrivalPos="0.20" arrivalPosLat="0.00" arrivalSpeed="9.53" duration="13.00" routeLength="54.01" waitingTime="3.00" waitingCount="1" stopTime="0.00" timeLoss="8.83" rerouteNo="0" devices="vehroute_476 tripinfo_476 routing_476" vType="car" speedFactor="1.00" vaporized=""/>
    <tripinfo id="66" depart="63.00" departLane="721131966#0_0" departPos="8.14" departPosLat="0.00" departSpeed="1.58" departDelay="47.16" arrival="131.00" arrivalLane="724005155#9_0" arrivalPos="156.61" arrivalPosLat="0.00" arrivalSpeed="14.09" duration="68.00" routeLength="158.20" waitingTime="53.00" waitingCount="1" stopTime="0.00" timeLoss="56.59" rerouteNo="0" devices="vehroute_66 tripinfo_66 routing_66" vType="motorbike" speedFactor="1.06" vaporized=""/>
    <tripinfo id="184" depart="45.00" departLane="-100954129#0_0" departPos="12.41" departPosLat="0.00" departSpeed="12.42" departDelay="0.84" arrival="132.00" arrivalLane="723990057#5_0" arrivalPos="39.97" arrivalPosLat="-0.55" arrivalSpeed="10.04" duration="87.00" routeLength="537.42" waitingTime="28.00" waitingCount="1" stopTime="0.00" timeLoss="43.47" rerouteNo="1" devices="vehroute_184 tripinfo_184 routing_184" vType="bus" speedFactor="0.91" vaporized=""/>
    <tripinfo id="363" depart="88.00" departLane="721131934#1_1" departPos="174.04" departPosLat="0.00" departSpeed="3.22" departDelay="0.88" arrival="137.00" arrivalLane="-851342126_0" arrivalPos="1.16" arrivalPosLat="-0.70" arrivalSpeed="5.41" duration="49.00" routeLength="344.50" waitingTime="14.00" waitingCount="1" stopTime="0.00" timeLoss="32.78" rerouteNo="1" devices="vehroute_363 tripinfo_363 routing_363" vType="car" speedFactor="1.00" vaporized=""/>
    <tripinfo id="406" depart="100.00" departLane="-721131941_0" departPos="0.15" departPosLat="0.00" departSpeed="0.05" departDelay="2.56" arrival="137.00" arrivalLane="721131937#10_0" arrivalPos="532.93" arrivalPosLat="0.00" arrivalSpeed="21.55" duration="37.00" routeLength="565.40" waitingTime="0.00" waitingCount="0" stopTime="0.00" timeLoss="9.11" rerouteNo="1" devices="vehroute_406 tripinfo_406 routing_406" vType="car" speedFactor="1.09" vaporized=""/>
    <tripinfo id="118" depart="29.00" departLane="722464592_0" departPos="269.97" departPosLat="0.00" departSpeed="16.67" departDelay="0.68" arrival="139.00" arrivalLane="-724005155#9_0" arrivalPos="155.18" arrivalPosLat="-0.60" arrivalSpeed="6.95" duration="110.00" routeLength="1409.69" waitingTime="0.00" waitingCount="0" stopTime="0.00" timeLoss="17.64" rerouteNo="1" devices="vehroute_118 tripinfo_118 routing_118" vType="motorbike" speedFactor="1.07" vaporized=""/>
    <tripinfo id="169" depart="41.00" departLane="152227691#13_0" departPos="35.64" departPosLat="0.00" departSpeed="16.67" departDelay="0.44" arrival="140.00" arrivalLane="1119166765#1_0" arrivalPos="369.98" arrivalPosLat="0.00" arrivalSpeed="15.93" duration="99.00" routeLength="1539.20" waitingTime="0.00" waitingCount="0" stopTime="0.00" timeLoss="6.05" rerouteNo="1" devices="vehroute_169 tripinfo_169 routing_169" vType="motorbike" speedFactor="0.88" vaporized=""/>
    <tripinfo id="422" depart="102.00" departLane="721131961_0" departPos="0.20" departPosLat="0.00" departSpeed="0.00" departDelay="0.72" arrival="141.00" arrivalLane="721131963#3_1" arrivalPos="496.13" arrivalPosLat="0.00" arrivalSpeed="16.02" duration="39.00" routeLength="514.25" waitingTime="0.00" waitingCount="0" stopTime="0.00" timeLoss="6.02" rerouteNo="1" devices="vehroute_422 tripinfo_422 routing_422" vType="motorbike" speedFactor="1.13" vaporized=""/>
    <tripinfo id="140" depart="34.00" departLane="721131937#13_2" departPos="223.25" departPosLat="0.00" departSpeed="22.22" departDelay="0.40" arrival="143.00" arrivalLane="-721131962_0" arrivalPos="0.20" arrivalPosLat="0.70" arrivalSpeed="6.97" duration="109.00" routeLength="2078.34" waitingTime="0.00" waitingCount="0" stopTime="0.00" timeLoss="14.29" rerouteNo="1" devices="vehroute_140 tripinfo_140 routing_140" vType="car" speedFactor="0.81" vaporized=""/>
    <tripinfo id="270" depart="65.00" departLane="721131954#0_2" departPos="92.93" departPosLat="0.00" departSpeed="22.22" departDelay="0.20" arrival="144.00" arrivalLane="850475200_0" arrivalPos="670.68" arrivalPosLat="0.00" arrivalSpeed="21.49" duration="79.00" routeLength="1446.95" waitingTime="0.00" waitingCount="0" stopTime="0.00" timeLoss="11.60" rerouteNo="1" devices="vehroute_270 tripinfo_270 routing_270" vType="car" speedFactor="1.14" vaporized=""/>
    <tripinfo id="138" depart="34.00" departLane="-155315719#0_0" departPos="71.90" departPosLat="0.00" departSpeed="16.67" departDelay="0.88" arrival="146.00" arrivalLane="31905190#1_0" arrivalPos="179.04" arrivalPosLat="0.00" arrivalSpeed="13.76" duration="112.00" routeLength="1413.21" waitingTime="0.00" waitingCount="0" stopTime="0.00" timeLoss="21.56" rerouteNo="1" devices="vehroute_138 tripinfo_138 routing_138" vType="motorbike" speedFactor="1.10" vaporized=""/>
    <tripinfo id="329" depart="79.00" departLane="-1270367191#2_0" departPos="2.42" departPosLat="0.00" departSpeed="1.69" departDelay="0.04" arrival="146.00" arrivalLane="-31905195#2_0" arrivalPos="114.44" arrivalPosLat="0.00" arrivalSpeed="14.40" duration="67.00" routeLength="883.29" waitingTime="0.00" waitingCount="0" stopTime="0.00" timeLoss="12.41" rerouteNo="1" devices="vehroute_329 tripinfo_329 routing_329" vType="motorbike" speedFactor="1.09" vaporized=""/>
    <tripinfo id="288" depart="70.00" departLane="155775198#5_0" departPos="8.70" departPosLat="0.00" departSpeed="22.22" departDelay="0.88" arrival="148.00" arrivalLane="152227697#3_0" arrivalPos="3.45" arrivalPosLat="0.00" arrivalSpeed="4.29" duration="78.00" routeLength="690.84" waitingTime="28.00" waitingCount="1" stopTime="0.00" timeLoss="40.56" rerouteNo="1" devices="vehroute_288 tripinfo_288 routing_288" vType="car" speedFactor="1.05" vaporized=""/>
    <tripinfo id="357" depart="86.00" departLane="152227697#4_0" departPos="382.57" departPosLat="0.00" departSpeed="19.98" departDelay="0.32" arrival="151.00" arrivalLane="-152227697#2_0" arrivalPos="220.61" arrivalPosLat="0.00" arrivalSpeed="19.58" duration="65.00" routeLength="804.89" waitingTime="6.00" waitingCount="1" stopTime="0.00" timeLoss="23.13" rerouteNo="1" devices="vehroute_357 tripinfo_357 routing_357" vType="car" speedFactor="0.90" vaporized=""/>
    <tripinfo id="409" depart="99.00" departLane="721131937#8_0" departPos="265.87" departPosLat="0.00" departSpeed="22.22" departDelay="0.84" arrival="151.00" arrivalLane="721131937#12_1" arrivalPos="461.87" arrivalPosLat="0.00" arrivalSpeed="21.96" duration="52.00" routeLength="1115.66" waitingTime="0.00" waitingCount="0" stopTime="0.00" timeLoss="1.48" rerouteNo="1" devices="vehroute_409 tripinfo_409 routing_409" vType="car" speedFactor="0.87" vaporized=""/>
    <tripinfo id="196" depart="48.00" departLane="1056899464#2_0" departPos="21.45" departPosLat="0.00" departSpeed="14.28" departDelay="0.96" arrival="154.00" arrivalLane="31905181#1_0" arrivalPos="336.34" arrivalPosLat="0.00" arrivalSpeed="13.82" duration="106.00" routeLength="1400.34" waitingTime="0.00" waitingCount="0" stopTime="0.00" timeLoss="20.39" rerouteNo="1" devices="vehroute_196 tripinfo_196 routing_196" vType="car" speedFactor="1.03" vaporized=""/>
    <tripinfo id="419" depart="101.00" departLane="152227691#5_1" departPos="117.92" departPosLat="0.00" departSpeed="9.30" departDelay="0.44" arrival="156.00" arrivalLane="850817945_0" arrivalPos="0.20" arrivalPosLat="0.20" arrivalSpeed="2.53" duration="55.00" routeLength="151.89" waitingTime="36.00" waitingCount="1" stopTime="0.00" timeLoss="44.01" rerouteNo="1" devices="vehroute_419 tripinfo_419 routing_419" vType="motorbike" speedFactor="1.16" vaporized=""/>
    <tripinfo id="423" depart="102.00" departLane="1149579537#2_1" departPos="196.23" departPosLat="0.00" departSpeed="22.22" departDelay="0.48" arrival="159.00" arrivalLane="1119166765#3_0" arrivalPos="305.86" arrivalPosLat="0.00" arrivalSpeed="21.66" duration="57.00" routeLength="1142.62" waitingTime="0.00" waitingCount="0" stopTime="0.00" timeLoss="5.13" rerouteNo="1" devices="vehroute_423 tripinfo_423 routing_423" vType="car" speedFactor="1.11" vaporized=""/>
    <tripinfo id="369" depart="89.00" departLane="1149579536#0_1" departPos="5.90" departPosLat="0.00" departSpeed="5.08" departDelay="0.44" arrival="160.00" arrivalLane="1149578943_0" arrivalPos="2.24" arrivalPosLat="0.20" arrivalSpeed="5.30" duration="71.00" routeLength="977.50" waitingTime="0.00" waitingCount="0" stopTime="0.00" timeLoss="10.97" rerouteNo="1" devices="vehroute_369 tripinfo_369 routing_369" vType="motorbike" speedFactor="1.18" vaporized=""/>
    <tripinfo id="436" depart="105.00" departLane="-442885359#0_0" departPos="31.28" departPosLat="0.00" departSpeed="10.61" departDelay="0.36" arrival="161.00" arrivalLane="-152227686#6_0" arrivalPos="288.93" arrivalPosLat="0.00" arrivalSpeed="10.07" duration="56.00" routeLength="484.94" waitingTime="3.00" waitingCount="1" stopTime="0.00" timeLoss="15.61" rerouteNo="1" devices="vehroute_436 tripinfo_436 routing_436" vType="car" speedFactor="0.76" vaporized=""/>
    <tripinfo id="479" depart="115.00" departLane="152227691#12_1" departPos="11.95" departPosLat="0.00" departSpeed="16.67" departDelay="0.04" arrival="165.00" arrivalLane="721131934#4_1" arrivalPos="150.32" arrivalPosLat="0.00" arrivalSpeed="16.25" duration="50.00" routeLength="687.53" waitingTime="0.00" waitingCount="0" stopTime="0.00" timeLoss="6.63" rerouteNo="1" devices="vehroute_479 tripinfo_479 routing_479" vType="motorbike" speedFactor="0.98" vaporized=""/>
    <tripinfo id="44" depart="11.00" departLane="-155315693#8_0" departPos="234.35" departPosLat="0.00" departSpeed="14.16" departDelay="0.44" arrival="167.00" arrivalLane="-1149580110_0" arrivalPos="0.20" arrivalPosLat="-1.60" arrivalSpeed="3.72" duration="156.00" routeLength="2201.24" waitingTime="0.00" waitingCount="0" stopTime="0.00" timeLoss="17.36" rerouteNo="1" devices="vehroute_44 tripinfo_44 routing_44" vType="motorbike" speedFactor="1.02" vaporized="teleport"/>
    <tripinfo id="148" depart="36.00" departLane="1307054560#1_0" departPos="11.55" departPosLat="0.00" departSpeed="16.67" departDelay="0.48" arrival="168.00" arrivalLane="-100954129#5_0" arrivalPos="159.26" arrivalPosLat="0.00" arrivalSpeed="14.22" duration="132.00" routeLength="921.75" waitingTime="51.00" waitingCount="1" stopTime="0.00" timeLoss="71.67" rerouteNo="1" devices="vehroute_148 tripinfo_148 routing_148" vType="motorbike" speedFactor="1.02" vaporized=""/>
    <tripinfo id="378" depart="91.00" departLane="205021436#0_0" departPos="346.61" departPosLat="0.00" departSpeed="16.67" departDelay="0.28" arrival="169.00" arrivalLane="1149581388_0" arrivalPos="137.46" arrivalPosLat="0.00" arrivalSpeed="14.97" duration="78.00" routeLength="354.37" waitingTime="51.00" waitingCount="1" stopTime="0.00" timeLoss="56.53" rerouteNo="0" devices="vehroute_378 tripinfo_378 routing_378" vType="motorbike" speedFactor="1.15" vaporized=""/>
    <tripinfo id="121" depart="30.00" departLane="155315695#4_0" departPos="40.74" departPosLat="0.00" departSpeed="6.91" departDelay="0.96" arrival="170.00" arrivalLane="724005148_0" arrivalPos="141.51" arrivalPosLat="0.00" arrivalSpeed="5.55" duration="140.00" routeLength="1557.54" waitingTime="0.00" waitingCount="0" stopTime="0.00" timeLoss="19.93" rerouteNo="1" devices="vehroute_121 tripinfo_121 routing_121" vType="bus" speedFactor="1.01" vaporized=""/>
    <tripinfo id="95" depart="23.00" departLane="1270367191#0_0" departPos="117.29" departPosLat="0.00" departSpeed="5.62" departDelay="0.20" arrival="171.00" arrivalLane="-934270764_0" arrivalPos="80.67" arrivalPosLat="-1.27" arrivalSpeed="5.26" duration="148.00" routeLength="766.98" waitingTime="0.00" waitingCount="0" stopTime="0.00" timeLoss="11.07" rerouteNo="1" devices="vehroute_95 tripinfo_95 routing_95" vType="DEFAULT_BIKETYPE" speedFactor="1.01" vaporized=""/>
    <tripinfo id="463" depart="112.00" departLane="152227686#3_0" departPos="118.76" departPosLat="0.00" departSpeed="12.80" departDelay="0.88" arrival="171.00" arrivalLane="442885101#0_0" arrivalPos="129.26" arrivalPosLat="0.00" arrivalSpeed="15.83" duration="59.00" routeLength="702.86" waitingTime="0.00" waitingCount="0" stopTime="0.00" timeLoss="14.02" rerouteNo="1" devices="vehroute_463 tripinfo_463 routing_463" vType="motorbike" speedFactor="0.92" vaporized=""/>
    <tripinfo id="396" depart="96.00" departLane="721131967_0" departPos="6.57" departPosLat="0.00" departSpeed="11.55" departDelay="0.96" arrival="173.00" arrivalLane="721131966#0_1" arrivalPos="9.73" arrivalPosLat="0.00" arrivalSpeed="19.42" duration="77.00" routeLength="198.16" waitingTime="51.00" waitingCount="1" stopTime="0.00" timeLoss="60.95" rerouteNo="1" devices="vehroute_396 tripinfo_396 routing_396" vType="truck" speedFactor="0.83" vaporized=""/>
    <tripinfo id="77" depart="19.00" departLane="-155775198#4_0" departPos="19.46" departPosLat="0.00" departSpeed="16.67" departDelay="0.52" arrival="175.00" arrivalLane="-723990057#2_0" arrivalPos="158.77" arrivalPosLat="0.00" arrivalSpeed="16.39" duration="156.00" routeLength="1077.66" waitingTime="65.00" waitingCount="3" stopTime="0.00" timeLoss="90.11" rerouteNo="1" devices="vehroute_77 tripinfo_77 routing_77" vType="motorbike" speedFactor="1.29" vaporized=""/>