<?xml version="1.0" encoding="UTF-8"?>

<!-- generated on 2025-08-22 17:52:15 by Eclipse SUMO GUI Version 1.24.0
<sumoConfiguration xmlns:xsi="http://www.w3.org/2001/XMLSchema-instance" xsi:noNamespaceSchemaLocation="http://sumo.dlr.de/xsd/sumoConfiguration.xsd">

    <input>
        <net-file value="src\PhuQuoc/phuquoc.net.xml"/>
        <route-files value="src\PhuQuoc/phuquoc.rou.xml,src\PhuQuoc/phuquoc-demo.rou.xml"/>
        <additional-files value="src\PhuQuoc/detector.add.xml"/>
    </input>

    <output>
        <tripinfo-output value="src\PhuQuoc/../../output/tripinfo_baseline.xml"/>
        <vehroute-output value="src\PhuQuoc/../../output/vehroutes_baseline.xml"/>
        <edgedata-output value="src\PhuQuoc/../../output/edgedata_baseline.xml"/>
    </output>

    <time>
        <step-length value="1"/>
    </time>

    <processing>
        <lateral-resolution value="0.5"/>
        <ignore-route-errors value="true"/>
        <time-to-teleport value="50"/>
        <tls.actuated.jam-threshold value="30"/>
    </processing>

    <routing>
        <device.rerouting.adaptation-steps value="18"/>
        <device.rerouting.adaptation-interval value="10"/>
    </routing>

    <report>
        <verbose value="true"/>
        <duration-log.statistics value="true"/>
        <no-step-log value="true"/>
    </report>

    <traci_server>
        <remote-port value="8814"/>
    </traci_server>

    <gui_only>
        <gui-settings-file value="src\PhuQuoc/phuquoc.view.xml"/>
        <start value="true"/>
        <delay value="0"/>
    </gui_only>

</sumoConfiguration>
-->

<routes xmlns:xsi="http://www.w3.org/2001/XMLSchema-instance" xsi:noNamespaceSchemaLocation="http://sumo.dlr.de/xsd/routes_file.xsd">
    <vehicle id="62" type="car" depart="23.00" departLane="0" departPos="23.0686" departSpeed="13.5302" speedFactor="0.9741" arrival="40.00">
        <route edges="721131967 721131962 721131960#4"/>
    </vehicle>

    <vehicle id="21" type="motorbike" depart="8.00" departLane="0" departPos="23.7709" departSpeed="16.67" speedFactor="1.1103" arrival="47.00">
        <route edges="-723990057#6 -723990057#5 -723990057#4 -766326319 100954129#5"/>
    </vehicle>

    <vehicle id="84" type="car" depart="31.00" departLane="2" departPos="75.2214" departSpeed="20.4696" speedFactor="1.0485" arrival="51.00">
        <route edges="721131946#9 721131939 721131937#5 -721131940"/>
    </vehicle>

    <vehicle id="73" type="car" depart="27.00" departLane="0" departPos="3.588" departSpeed="15.2401" speedFactor="1.0972" arrival="60.00">
        <route edges="152227686#1 152227686#2 722464599#0 442885355#1 155315711"/>
    </vehicle>

    <vehicle id="15" type="truck" depart="6.00" departLane="2" departPos="34.0114" departSpeed="19.44" speedFactor="0.7896" arrival="64.00">
        <route edges="721131946#9 721131939 721131937#5 721131937#6 721131937#8"/>
    </vehicle>

    <vehicle id="125" type="car" depart="45.00" departLane="0" departPos="158.6915" departSpeed="15.6276" speedFactor="1.1251" arrival="69.00">
        <route edges="-152227686#6 -152227686#2 -152227686#1 -152227686#0 -722464598"/>
    </vehicle>

    <vehicle id="24" type="motorbike" depart="9.00" departLane="1" departPos="97.8948" departSpeed="16.67" speedFactor="0.9799" arrival="77.00">
        <route edges="721126897#14 721126897#15 1149579536#0 1149579536#1 1149579536#2 1149579536#4 1149579536#5 1149579536#7"/>
    </vehicle>

    <vehicle id="40" type="DEFAULT_BIKETYPE" depart="15.00" departLane="0" departPos="124.6768" departSpeed="5.5389" speedFactor="0.9970" arrival="77.00">
        <route edges="442885101#0 442885101#1 442885101#2 -442885355#2 155315711 722464597#0"/>
    </vehicle>

    <vehicle id="13" type="truck" depart="5.00" departLane="0" departPos="100.6988" departSpeed="12.6427" speedFactor="0.9102" arrival="81.00">
        <route edges="-155315694#2 155315694#0 155315694#3 155315695#4 -155315693#2"/>
    </vehicle>

    <vehicle id="163" type="truck" depart="59.00" departLane="1" departPos="48.4735" departSpeed="19.44" speedFactor="0.9406" arrival="83.00">
        <route edges="721131963#3"/>
    </vehicle>

    <vehicle id="10" type="bus" depart="4.00" departLane="2" departPos="1.6161" departSpeed="16.67" speedFactor="0.9921" arrival="100.00">
        <route edges="721131946#8 721131940 721131937#6 721131937#8 721131937#9 721131937#10"/>
    </vehicle>

    <vehicle id="226" type="motorbike" depart="82.00" departLane="0" departPos="239.4079" departSpeed="14.3153" speedFactor="0.9031" arrival="101.00">
        <route edges="-155315678#5 100954129#2"/>
    </vehicle>

    <vehicle id="180" type="motorbike" depart="65.00" departLane="0" departPos="43.4567" departSpeed="9.5608" speedFactor="1.3324" arrival="105.00">
        <route edges="-100954129#0 100954129#0 100954129#1 100954129#2 155315683 723990057#5"/>
    </vehicle>

    <vehicle id="54" type="car" depart="20.00" departLane="0" departPos="48.9567" departSpeed="11.7551" speedFactor="0.8463" arrival="106.00">
        <route edges="155315680#0 -482169086#8"/>
    </vehicle>

    <vehicle id="76" type="car" depart="28.00" departLane="0" departPos="30.1672" departSpeed="22.22" speedFactor="1.0318" arrival="109.00">
        <route edges="-723990057#7 -723990057#6 -723990057#5 -723990057#4 -723990057#3 -723990057#2 723990059 -31905201#2 -163652291 723990056 -723990054"/>
    </vehicle>

    <vehicle id="69" type="bus" depart="26.00" departLane="0" departPos="1.3933" departSpeed="4.3875" speedFactor="0.8439" arrival="113.00">
        <route edges="1270367191#2 -322191552 778021896 -722464597#2"/>
    </vehicle>

    <vehicle id="129" type="car" depart="47.00" departLane="0" departPos="735.0945" departSpeed="22.22" speedFactor="0.9128" arrival="113.00">
        <route edges="591704635#3 722464591#3 721131963#0 721131962 721131960#4 721131960#5 857958820#0"/>
    </vehicle>

    <vehicle id="34" type="car" depart="13.00" departLane="2" departPos="353.9193" departSpeed="12.2449" speedFactor="1.0719" arrival="115.00">
        <route edges="1119166765#1 1149578009 721126897#13 721126897#14 721126897#15 1149579536#0 1149579536#1 1149579536#2 1149579536#4 1149579536#5 1149579536#7 721131934#0 721131934#1 721131934#3 -851342124"/>
    </vehicle>

    <vehicle id="240" type="motorbike" depart="87.00" departLane="0" departPos="2.7387" departSpeed="16.67" speedFactor="0.8013" arrival="120.00">
        <route edges="205021436#1 591704635#0"/>
    </vehicle>

    <vehicle id="333" type="truck" depart="120.00" departLane="0" departPos="12.8738" departSpeed="14.754" speedFactor="1.0622" arrival="122.00">
        <route edges="-722464597#2"/>
    </vehicle>

    <vehicle id="263" type="motorbike" depart="95.00" departLane="2" departPos="85.9767" departSpeed="16.67" speedFactor="1.3046" arrival="130.00">
        <route edges="721131937#1 721131938 721131946#14 721131946#15"/>
    </vehicle>

    <vehicle id="85" type="motorbike" depart="31.00" departLane="0" departPos="43.1943" departSpeed="12.8674" speedFactor="1.1468" arrival="131.00">
        <route edges="-155315695#0 1270367191#2 -322191552 778021896 778021895 -152227686#1 152227686#1"/>
    </vehicle>

    <vehicle id="146" type="motorbike" depart="53.00" departLane="0" departPos="13.8239" departSpeed="16.67" speedFactor="1.3844" arrival="135.00">
        <route edges="722464597#2 778021895 152227686#2 722464599#0 -442885357 -1270367191#2 -1270367191#1 1270367192#1 1270367192#2 31905181#0"/>
    </vehicle>

    <vehicle id="241" type="car" depart="87.00" departLane="0" departPos="91.5257" departSpeed="22.22" speedFactor="1.0522" arrival="138.00">
        <route edges="-723990057#2 723990059 -31905201#2 -163652291 723990056 -723990054"/>
    </vehicle>

    <vehicle id="243" type="car" depart="88.00" departLane="0" departPos="0.8886" departSpeed="1.3504" speedFactor="1.1265" arrival="140.00">
        <route edges="1149578943 721131934#0 721131934#1 721131934#3 721131934#4 721131934#5 721131934#6"/>
    </vehicle>

    <vehicle id="92" type="car" depart="34.00" departLane="0" departPos="123.914" departSpeed="20.9878" speedFactor="0.7555" arrival="141.00">
        <route edges="1270367191#0 1270367191#2 -322191552 778021896 778021895 -152227686#1 -934270764"/>
    </vehicle>

    <vehicle id="165" type="car" depart="60.00" departLane="1" departPos="42.5864" departSpeed="22.22" speedFactor="1.2279" arrival="146.00">
        <route edges="152227691#13 1149579537#0 1149579537#1 1149579537#2 1149579537#4 1149579537#6 1119166765#1"/>
    </vehicle>

    <vehicle id="259" type="motorbike" depart="94.00" departLane="0" departPos="149.9782" departSpeed="13.1427" speedFactor="0.9462" arrival="148.00">
        <route edges="724005155#9 724005155#10 850699983#1 721131953 721131954#0 -721131956"/>
    </vehicle>

    <vehicle id="115" type="car" depart="42.00" departLane="0" departPos="182.5473" departSpeed="22.22" speedFactor="1.0066" arrival="151.00">
        <route edges="722464592 722464593#1 -205021436#1 218100268 724005155#1 724005155#4 724005155#5 724005155#6 724005155#9 -724005155#9"/>
    </vehicle>

    <vehicle id="37" type="truck" depart="16.00" departLane="0" departPos="1.0822" departSpeed="3.3834" speedFactor="0.7989" arrival="153.00">
        <route edges="722466950 -722466950 350424623#5 722466948 -31905214 -482169086#8 152227691#0 152227691#1 152227691#2 152227691#4"/>
    </vehicle>

    <vehicle id="357" type="car" depart="129.00" departLane="1" departPos="70.5714" departSpeed="22.22" speedFactor="1.0308" arrival="154.00">
        <route edges="721131934#1 721131934#3 721131934#4 -851342126"/>
    </vehicle>

    <vehicle id="375" type="motorbike" depart="135.00" departLane="0" departPos="195.4618" departSpeed="15.9096" speedFactor="1.1454" arrival="155.00">
        <route edges="271412010 -723990057#6 723990057#6"/>
    </vehicle>

    <vehicle id="200" type="motorbike" depart="72.00" departLane="2" departPos="53.1819" departSpeed="16.67" speedFactor="1.2928" arrival="156.00">
        <route edges="721126897#13 721126897#14 721126897#15 1149579536#0 1149579536#1 1149579536#2 1149579536#4 1149579536#5 -1149578944 1149578944"/>
    </vehicle>

    <vehicle id="43" type="car" depart="16.00" departLane="0" departPos="234.3481" departSpeed="13.6178" speedFactor="0.9804" arrival="159.00">
        <route edges="-155315693#8 -155315693#2 -155775198#3 -155775198#0 -155775200#1 152227691#0 152227691#1 -1149580110"/>
    </vehicle>

    <vehicle id="134" type="motorbike" depart="49.00" departLane="0" departPos="158.8862" departSpeed="16.67" speedFactor="1.2369" arrival="163.00">
        <route edges="-155315719#0 -152227697#3 350539817#0 -322191552 442885355#1 442885355#2 -442885101#2 -155315682 31905190#1"/>
    </vehicle>

    <vehicle id="136" type="bus" depart="49.00" departLane="2" departPos="454.6175" departSpeed="16.67" speedFactor="0.8515" arrival="163.00">
        <route edges="721131937#13 721131954#0 721131954#2 721131960#1 -721131962"/>
    </vehicle>

    <vehicle id="41" type="motorbike" depart="15.00" departLane="0" departPos="31.9686" departSpeed="16.67" speedFactor="1.3386" arrival="164.00">
        <route edges="1149580107#2 1149580107#3 1149580107#4 155315669#0 -723990057#7 -723990057#6 -723990057#5 -723990057#4 -723990057#3 -723990057#2 723990059 -31905201#2 723990054 -723990054"/>
    </vehicle>

    <vehicle id="93" type="motorbike" depart="34.00" departLane="0" departPos="63.9568" departSpeed="16.3166" speedFactor="1.1747" arrival="164.00">
        <route edges="-766326334.90 -1307054560#5 -1307054560#4 -1307054560#3 -1307054560#2 -1307054560#1 -1307054560#0 1117528626#0 -723990057#5 -723990057#4 723990057#4"/>
    </vehicle>

    <vehicle id="389" type="car" depart="141.00" departLane="0" departPos="27.7169" departSpeed="11.7468" speedFactor="0.8457" arrival="164.00">
        <route edges="721131967 721131962 721131960#4 721131960#5 721131966#0"/>
    </vehicle>

    <vehicle id="411" type="car" depart="148.00" departLane="1" departPos="3.0533" departSpeed="22.22" speedFactor="0.8920" arrival="166.00">
        <route edges="152227691#5 152227691#7 -850817945 850817945"/>
    </vehicle>

    <vehicle id="8" type="bus" depart="3.00" departLane="0" departPos="86.5733" departSpeed="16.67" speedFactor="0.8505" arrival="167.00">
        <route edges="-723990057#2 723990057#1 -100954129#5 -100954129#4 -100954129#3 -100954129#1 -100954129#0 155775198#1 155775198#4 155775198#5 155775198#6 1270367192#2 1270367192#0 1270367191#0 1270367191#2 -322191552 442885355#1"/>
    </vehicle>

    <vehicle id="193" type="DEFAULT_BIKETYPE" depart="71.00" departLane="0" departPos="0.6833" departSpeed="5.3833" speedFactor="0.9690" arrival="172.00">
        <route edges="-100954129#0 100954129#0 100954129#1 100954129#2 100954129#4"/>
    </vehicle>

    <vehicle id="16" type="bus" depart="6.00" departLane="0" departPos="1.9065" departSpeed="12.6831" speedFactor="0.9584" arrival="174.00">
        <route edges="155775198#4 -155775198#4 -155775198#3 -155775198#0 -155775200#1 152227691#0 152227691#1 152227691#2 -850817949 850817949"/>
    </vehicle>

    <vehicle id="210" type="motorbike" depart="76.00" departLane="2" departPos="2.6526" departSpeed="16.67" speedFactor="1.1765" arrival="174.00">
        <route edges="721131937#9 721131937#10 721131937#12 -721131943 721131946#2"/>
    </vehicle>

    <vehicle id="201" type="car" depart="73.00" departLane="2" departPos="373.6411" departSpeed="16.8536" speedFactor="1.1421" arrival="176.00">
        <route edges="721131954#0 -721131956 721131958#1 850475200 721131943"/>
    </vehicle>

    <vehicle id="266" type="car" depart="96.00" departLane="2" departPos="58.7323" departSpeed="22.22" speedFactor="1.1713" arrival="176.00">
        <route edges="721131954#0 -721131956 721131958#1 850475200"/>
    </vehicle>

    <vehicle id="468" type="car" depart="169.00" departLane="0" departPos="3.7358" departSpeed="14.3706" speedFactor="1.0346" arrival="176.00">
        <route edges="850699983#1 721131953"/>
    </vehicle>

    <vehicle id="192" type="car" depart="70.00" departLane="0" departPos="21.9821" departSpeed="12.7552" speedFactor="0.9183" arrival="177.00">
        <route edges="1056899464#2 152227686#1 152227686#2 722464599#0 -442885357 -1270367191#2 -1270367191#1 1270367192#1 1270367192#2 31905181#0 31905181#1"/>
    </vehicle>

    <vehicle id="463" type="car" depart="167.00" departLane="2" departPos="107.001" departSpeed="22.22" speedFactor="0.8447" arrival="178.00">
        <route edges="721131946#8 721131940"/>
    </vehicle>

    <vehicle id="14" type="motorbike" depart="6.00" departLane="1" departPos="3.2504" departSpeed="2.4886" speedFactor="1.1581" arrival="182.00">
        <route edges="721131960#5 857958820#0 857958820#1 722464592 722464593#1 -205021436#1 205021436#1 591704635#0"/>
    </vehicle>

    <vehicle id="414" type="car" depart="150.00" departLane="0" departPos="0.1592" departSpeed="0.0398" speedFactor="0.9025" arrival="182.00">
        <route edges="721131961 -721131961 721131963#3"/>
    </vehicle>

    <vehicle id="3" type="car" depart="2.00" departLane="0" departPos="135.2506" departSpeed="22.22" speedFactor="0.8290" arrival="183.00">
        <route edges="722464592 722464593#1 -205021436#1 -205021436#0 -1307054560#5 -1307054560#4 -1307054560#3 -1307054560#2 -1307054560#1 -1307054560#0 1117528626#0 -155315678#5"/>
    </vehicle>

    <vehicle id="106" type="DEFAULT_BIKETYPE" depart="39.00" departLane="1" departPos="18.3799" departSpeed="5.2233" speedFactor="0.9402" arrival="183.00">
        <route edges="-442885101#0 -155315680#1 1056899464#0 1056899464#1"/>
    </vehicle>

    <vehicle id="351" type="motorbike" depart="127.00" departLane="0" departPos="425.9018" departSpeed="16.67" speedFactor="0.9264" arrival="183.00">
        <route edges="152227697#4 -155315719#0 -152227697#3 -152227697#2"/>
    </vehicle>

    <vehicle id="144" type="car" depart="53.00" departLane="0" departPos="20.1103" departSpeed="13.7497" speedFactor="0.9720" arrival="188.00">
        <route edges="1307054560#1 -1307054560#1 -1307054560#0 1117528626#0 -723990057#5 -723990057#4 -723990057#3 -100954129#5"/>
    </vehicle>

    <vehicle id="51" type="bus" depart="19.00" departLane="0" departPos="1.3745" departSpeed="0.0945" speedFactor="0.9825" arrival="189.00">
        <route edges="-851342124 152227691#10 152227691#12 152227691#13 1149579537#0 1149579537#1 1149579537#2 1149579537#4 1149579537#6 1119166765#1 1149578009 721126897#13 721126897#14 721126897#15"/>
    </vehicle>

    <vehicle id="175" type="motorbike" depart="63.00" departLane="0" departPos="90.77" departSpeed="16.67" speedFactor="0.9640" arrival="190.00">
        <route edges="-155315719#1 -155315719#0 -152227697#3 350539817#0 -322191552 778021896 778021895 152227686#2 152227686#3"/>
    </vehicle>

    <vehicle id="124" type="truck" depart="45.00" departLane="0" departPos="985.5984" departSpeed="17.1001" speedFactor="0.8828" arrival="191.00">
        <route edges="934254484#2 -1135316108 -934254484#1 -934254484#0 -1135316109 1135316109 934254484#0"/>
    </vehicle>

    <vehicle id="225" type="bus" depart="81.00" departLane="0" departPos="141.1042" departSpeed="16.67" speedFactor="0.9069" arrival="193.00">
        <route edges="721126897#12 721126897#13 721126897#14 592032565 721131937#1 721131937#2 721131937#5 721131937#6 -852629939"/>
    </vehicle>

    <vehicle id="47" type="bus" depart="17.00" departLane="0" departPos="225.5526" departSpeed="16.67" speedFactor="0.9721" arrival="195.00">
        <route edges="934254484#0 934254484#1 934254484#2 723990057#1 -100954129#5 -100954129#4 -100954129#3 -100954129#1 -100954129#0 155775198#1"/>
    </vehicle>

    <vehicle id="52" type="motorbike" depart="19.00" departLane="0" departPos="844.4404" departSpeed="16.67" speedFactor="0.9366" arrival="197.00">
        <route edges="-155315719#15 -155315719#8 -155315719#2 -155315719#1 -155315719#0 -152227697#3 350539817#0 -322191552 778021896 778021895 152227686#2 152227686#3"/>
    </vehicle>

    <vehicle id="363" type="motorbike" depart="131.00" departLane="1" departPos="11.4689" departSpeed="16.67" speedFactor="1.1704" arrival="197.00">
        <route edges="1149579536#0 1149579536#1 1149579536#2 1149579536#4 1149579536#5 1149579536#7 -1149578943 1149578943"/>
    </vehicle>

    <vehicle id="138" type="motorbike" depart="50.00" departLane="0" departPos="2.5754" departSpeed="16.67" speedFactor="1.3972" arrival="199.00">
        <route edges="152227697#1 350539817#0 -322191552 442885355#1 442885355#2 -442885101#2 -442885101#1 -442885101#0 31905214 722466947"/>
    </vehicle>

    <vehicle id="79" type="truck" depart="29.00" departLane="2" departPos="13.1285" departSpeed="15.6151" speedFactor="1.0771" arrival="202.00">
        <route edges="721131963#0 721131962 721131960#4 721131960#5 857958820#0 857958820#1 722464592 722464593#1 -205021436#1 -205021436#0 -1307054560#5"/>
    </vehicle>

    <vehicle id="402" type="truck" depart="145.00" departLane="1" departPos="279.853" departSpeed="19.44" speedFactor="0.8859" arrival="203.00">
        <route edges="721131937#8 721131937#9 721131937#10 721131937#12"/>
    </vehicle>

    <vehicle id="188" type="bus" depart="69.00" departLane="0" departPos="54.984" departSpeed="16.1948" speedFactor="0.9545" arrival="204.00">
        <route edges="1149580107#3 1149580107#4 482169086#0 -155315680#1 1056899464#0"/>
    </vehicle>

    <vehicle id="133" type="car" depart="48.00" departLane="0" departPos="152.02" departSpeed="13.29" speedFactor="0.9568" arrival="205.00">
        <route edges="-271412010 -100954129#0 155775198#1 155775198#4 155775198#5 155775198#6 1270367192#2 1270367192#0 1270367191#0 1270367191#2 350539806#1 152227697#4 155315719#1 -155315719#1"/>
    </vehicle>

    <vehicle id="20" type="motorbike" depart="8.00" departLane="2" departPos="11.3835" departSpeed="16.67" speedFactor="0.8879" arrival="208.00">
        <route edges="721131937#1 721131938 721131946#14 721131946#15 1149579536#0 1149579536#1 1149579536#2 1149579536#4 1149579536#5 1149579536#7 721131934#0 721131934#1 721131934#3 721131934#4 721131934#5 721131934#6 721131934#7 1149580107#0 1149580109 -1149580109"/>
    </vehicle>

    <vehicle id="5" type="car" depart="2.00" departLane="0" departPos="3.2914" departSpeed="22.0296" speedFactor="1.1360" arrival="211.00">
        <route edges="-723990056 163652291 31905201#0 723990058 723990057#1 723990057#3 723990057#4 723990057#5 723990057#6 723990057#7 155775198#0 155775198#1 155775198#4 155775198#5 155315694#0"/>
    </vehicle>

    <vehicle id="244" type="motorbike" depart="88.00" departLane="1" departPos="13.3244" departSpeed="16.67" speedFactor="1.0351" arrival="211.00">
        <route edges="1149580107#4 482169086#0 442885101#0 442885101#1 -442885101#1"/>
    </vehicle>

    <vehicle id="126" type="truck" depart="46.00" departLane="0" departPos="0.3826" departSpeed="0.0064" speedFactor="0.8668" arrival="215.00">
        <route edges="-850817949 1149580107#2 1149580107#3 1149580107#4 155315669#0 -723990057#7 -723990057#6 -723990057#5 -723990057#4 -723990057#3 -723990057#2 723990059"/>
    </vehicle>

    <vehicle id="118" type="motorbike" depart="43.00" departLane="0" departPos="19.375" departSpeed="11.612" speedFactor="0.8360" arrival="217.00">
        <route edges="155315695#4 -155315695#4 -155315695#3 -155315695#1 -155315695#0 1270367191#2 350539806#1 152227697#4 155315719#1 155315719#2 724005148"/>
    </vehicle>

    <vehicle id="461" type="motorbike" depart="167.00" departLane="0" departPos="34.0277" departSpeed="16.5667" speedFactor="1.2961" arrival="222.00">
        <route edges="721131958#1 -850699983#1 -850699983#0"/>
    </vehicle>

    <vehicle id="323" type="truck" depart="118.00" departLane="0" departPos="0.952" departSpeed="3.0785" speedFactor="0.8917" arrival="224.00">
        <route edges="-1270367191#2 1270367191#2 -322191552 442885355#1 442885355#2 -442885101#2 -442885101#1 -442885101#0 -31905195#2"/>
    </vehicle>

    <vehicle id="428" type="bus" depart="155.00" departLane="0" departPos="15.639" departSpeed="12.5288" speedFactor="0.9020" arrival="225.00">
        <route edges="-442885359#0 -442885355#2 -442885355#1 -152227686#6"/>
    </vehicle>

    <vehicle id="318" type="motorbike" depart="115.00" departLane="1" departPos="123.4038" departSpeed="9.9317" speedFactor="1.3936" arrival="226.00">
        <route edges="152227691#5 -850817946 721131934#7 1149580107#0 1149580107#1 1149580107#2 1149580107#3 1149580308 152227691#1"/>
    </vehicle>

    <vehicle id="196" type="motorbike" depart="71.00" departLane="1" departPos="16.7139" departSpeed="16.67" speedFactor="0.9013" arrival="227.00">
        <route edges="152227691#0 -1149580308 1149580107#4 482169086#0 -155315680#1 1056899464#0 1056899464#1 -722464598"/>
    </vehicle>

    <vehicle id="415" type="bus" depart="150.00" departLane="0" departPos="60.2484" departSpeed="16.67" speedFactor="1.0885" arrival="228.00">
        <route edges="1149579537#2 1149579537#4 1149579537#6 1119166765#1 1119166765#3"/>
    </vehicle>

    <vehicle id="170" type="motorbike" depart="63.00" departLane="1" departPos="5.1379" departSpeed="9.0954" speedFactor="1.3574" arrival="230.00">
        <route edges="721126897#15 1149579536#0 1149579536#1 1149579536#2 1149579536#4 1149579536#5 1149579536#7 721131934#0 721131934#1 721131934#3 721131934#4 721131934#5 721131934#6 721131934#7 1149580107#0 1149580107#1 1149580107#2 1149580107#3"/>
    </vehicle>

    <vehicle id="61" type="motorbike" depart="22.00" departLane="0" departPos="12.3876" departSpeed="16.67" speedFactor="0.9429" arrival="232.00">
        <route edges="-1117528626#1 -1117528627#2 -723990057#7 723990057#7"/>
    </vehicle>

    <vehicle id="74" type="DEFAULT_BIKETYPE" depart="27.00" departLane="0" departPos="1.4822" departSpeed="6.9333" speedFactor="1.2480" arrival="232.00">
        <route edges="-155775198#4 -155775198#3 100954129#0 100954129#1 100954129#2 100954129#4 100954129#5 -723990057#2"/>
    </vehicle>

    <vehicle id="122" type="car" depart="44.00" departLane="2" departPos="316.9103" departSpeed="20.3315" speedFactor="1.0375" arrival="232.00">
        <route edges="1119166765#1 1149578009 721126897#13 721126897#14 721126897#15 721131937#0 721131937#1 721131937#2 721131937#5 721131937#6 721131937#8 721131937#9 721131937#10 721131937#12 -721131943 721131943"/>
    </vehicle>

    <vehicle id="215" type="motorbike" depart="79.00" departLane="1" departPos="35.1592" departSpeed="16.67" speedFactor="1.2462" arrival="232.00">
        <route edges="152227691#12 152227691#13 1149579537#0 1149579537#1 1149579537#2 1149579537#4 1149579537#6 721131937#0 721131937#1 721131937#2 721131937#5 -721131940 721131946#9"/>
    </vehicle>

    <vehicle id="247" type="motorbike" depart="89.00" departLane="1" departPos="46.1541" departSpeed="16.67" speedFactor="0.9086" arrival="233.00">
        <route edges="1149580107#1 1149580107#2 1149580107#3 1149580107#4 482169086#0 31905214 722466947 350424622#0"/>
    </vehicle>

    <vehicle id="443" type="motorbike" depart="160.00" departLane="0" departPos="1.1356" departSpeed="0.0234" speedFactor="1.1610" arrival="235.00">
        <route edges="851342126 -851342126 152227691#9 152227691#10 152227691#12 152227691#13 1149578943 721131934#0"/>
    </vehicle>

    <vehicle id="596" type="car" depart="216.00" departLane="0" departPos="181.2134" departSpeed="22.22" speedFactor="1.1506" arrival="236.00">
        <route edges="-442885357 -1270367191#2 155315695#0"/>
    </vehicle>

    <vehicle id="22" type="motorbike" depart="8.00" departLane="0" departPos="30.5866" departSpeed="12.1593" speedFactor="0.8754" arrival="239.00">
        <route edges="-155315680#1 155315680#0 -482169086#8 155315669#0 -723990057#7 -723990057#6"/>
    </vehicle>

    <vehicle id="137" type="motorbike" depart="50.00" departLane="1" departPos="220.1402" departSpeed="16.67" speedFactor="1.0977" arrival="239.00">
        <route edges="721126897#13 721126897#14 721126897#15 1149579536#0 1149579536#1 1149579536#2 1149579536#4 1149579536#5 1149579536#7 721131934#0 721131934#1 721131934#3 721131934#4 721131934#5 721131934#6 850817946 -850817946"/>
    </vehicle>

    <vehicle id="228" type="car" depart="83.00" departLane="0" departPos="42.8216" departSpeed="22.22" speedFactor="1.0337" arrival="241.00">
        <route edges="155775198#6 1270367192#2 1270367192#0 1270367192#1 -155775198#6 -155775198#5 -155775198#4 -155775198#3 -155775198#0 -723990057#7 -271412010"/>
    </vehicle>

    <vehicle id="284" type="DEFAULT_BIKETYPE" depart="104.00" departLane="0" departPos="6.468" departSpeed="5.3183" speedFactor="0.9573" arrival="243.00">
        <route edges="155775198#5 155775198#6 1270367192#2 1270367192#0 1270367191#0 1270367191#2 350539806#1 -152227697#3 152227697#3"/>
    </vehicle>

    <vehicle id="395" type="bus" depart="143.00" departLane="0" departPos="162.4441" departSpeed="16.67" speedFactor="0.9260" arrival="243.00">
        <route edges="152227697#1 350539817#0 -322191552 442885355#1 442885355#2 -442885101#2 -442885101#1 -155315688#1 -31905195#1"/>
    </vehicle>

    <vehicle id="214" type="car" depart="78.00" departLane="0" departPos="7.3678" departSpeed="14.7734" speedFactor="1.0636" arrival="245.00">
        <route edges="-766326334.90 205021436#0 205021436#1 591704635#0 591704635#3 722464591#3 721131963#0"/>
    </vehicle>

    <vehicle id="378" type="car" depart="137.00" departLane="2" departPos="39.6633" departSpeed="22.22" speedFactor="0.9507" arrival="245.00">
        <route edges="591704635#0 -722464595 722464593#1 -205021436#1 218100268 724005155#1 -724005155#3"/>
    </vehicle>

    <vehicle id="497" type="motorbike" depart="179.00" departLane="2" departPos="325.7919" departSpeed="16.67" speedFactor="1.1883" arrival="245.00">
        <route edges="721126897#7 721126897#12 721126897#13 721126897#14 721126897#15"/>
    </vehicle>

    <vehicle id="646" type="car" depart="233.00" departLane="1" departPos="94.3935" departSpeed="22.22" speedFactor="1.0010" arrival="245.00">
        <route edges="1149579536#5 1149579536#7"/>
    </vehicle>

    <vehicle id="269" type="motorbike" depart="100.00" departLane="0" departPos="0.1659" departSpeed="0.9431" speedFactor="1.3783" arrival="246.00">
        <route edges="827332718 1149579536#4 1149579536#5 1149579536#7 721131934#0 721131934#1 721131934#3 721131934#4 721131934#5 721131934#6 721131934#7 1149580107#0 1149580107#1 1149580107#2 1149580107#3"/>
    </vehicle>

    <vehicle id="273" type="car" depart="139.00" departLane="1" departPos="1.3596" departSpeed="4.0904" speedFactor="1.0272" arrival="246.00">
        <route edges="721131960#5 857958820#0 857958820#1 722464592 722464593#1 -205021436#1 205021436#1 591704635#0"/>
    </vehicle>

    <vehicle id="582" type="motorbike" depart="210.00" departLane="2" departPos="352.4753" departSpeed="16.67" speedFactor="1.1350" arrival="247.00">
        <route edges="721131958#1 721131953 721131954#0"/>
    </vehicle>

    <vehicle id="123" type="truck" depart="45.00" departLane="0" departPos="237.2403" departSpeed="13.7469" speedFactor="0.9897" arrival="248.00">
        <route edges="-152227686#6 -152227686#2 -152227686#1 -152227686#0 -1056899464#1 -1056899464#0 155315680#0 -482169086#8 152227691#0 152227691#1 152227691#2"/>
    </vehicle>

    <vehicle id="113" type="motorbike" depart="41.00" departLane="0" departPos="9.6422" departSpeed="16.67" speedFactor="1.2037" arrival="249.00">
        <route edges="442885355#1 442885355#2 -442885101#2 -442885101#1 -442885101#0 -482169086#8 152227691#0 152227691#1 152227691#2 152227691#4 152227691#6 152227691#5 152227691#7 152227691#8 851342126 721131934#5"/>
    </vehicle>

    <vehicle id="260" type="motorbike" depart="94.00" departLane="0" departPos="396.3527" departSpeed="16.67" speedFactor="1.0889" arrival="249.00">