<?xml version="1.0" encoding="UTF-8"?>

<!-- generated on 2025-08-19 15:11:10 by Eclipse SUMO GUI Version 1.23.1
<sumoConfiguration xmlns:xsi="http://www.w3.org/2001/XMLSchema-instance" xsi:noNamespaceSchemaLocation="http://sumo.dlr.de/xsd/sumoConfiguration.xsd">

    <input>
        <net-file value="PhuQuoc/phuquoc.net.xml"/>
        <route-files value="PhuQuoc/phuquoc.rou.xml,PhuQuoc/phuquoc-demo.rou.xml"/>
        <additional-files value="PhuQuoc/detector.add.xml"/>
    </input>

    <output>
        <tripinfo-output value="D:\He_thong_giao_thong_thich_ung\Algorithms_code\PC_Algorithms\output\tripinfo.xml"/>
        <vehroute-output value="PhuQuoc/../../output/vehroutes_baseline.xml"/>
        <edgedata-output value="D:\He_thong_giao_thong_thich_ung\Algorithms_code\PC_Algorithms\output\edgedata.xml"/>
    </output>

    <time>
        <step-length value="1"/>
    </time>

    <processing>
        <lateral-resolution value="0.5"/>
        <ignore-route-errors value="true"/>
        <time-to-teleport value="50"/>
        <tls.actuated.jam-threshold value="30"/>
    </processing>

    <routing>
        <device.rerouting.adaptation-steps value="18"/>
        <device.rerouting.adaptation-interval value="10"/>
    </routing>

    <report>
        <verbose value="true"/>
        <duration-log.statistics value="true"/>
        <no-step-log value="true"/>
    </report>

    <traci_server>
        <remote-port value="8814"/>
    </traci_server>

    <gui_only>
        <gui-settings-file value="PhuQuoc/phuquoc.view.xml"/>
        <start value="true"/>
    </gui_only>

</sumoConfiguration>
-->

<routes xmlns:xsi="http://www.w3.org/2001/XMLSchema-instance" xsi:noNamespaceSchemaLocation="http://sumo.dlr.de/xsd/routes_file.xsd">
    <vehicle id="41" type="motorbike" depart="10.00" departLane="0" departPos="124.6768" departSpeed="16.67" speedFactor="1.3386" arrival="39.00">
        <route edges="442885101#0 442885101#1 442885101#2 -442885355#2 155315711 722464597#0"/>
    </vehicle>

    <vehicle id="87" type="motorbike" depart="21.00" departLane="2" departPos="63.3488" departSpeed="16.67" speedFactor="1.1645" arrival="42.00">
        <route edges="721131946#9 721131939 721131937#5 -721131940"/>
    </vehicle>

    <vehicle id="21" type="motorbike" depart="6.00" departLane="0" departPos="23.7709" departSpeed="16.67" speedFactor="1.1103" arrival="45.00">
        <route edges="-723990057#6 -723990057#5 -723990057#4 -766326319 100954129#5"/>
    </vehicle>

    <vehicle id="167" type="car" depart="41.00" departLane="1" departPos="366.6561" departSpeed="22.22" speedFactor="1.2092" arrival="47.00">
        <route edges="721131963#3"/>
    </vehicle>

    <vehicle id="64" type="DEFAULT_BIKETYPE" depart="16.00" departLane="0" departPos="14.8068" departSpeed="4.9378" speedFactor="0.8888" arrival="51.00">
        <route edges="721131967 721131962 721131960#4"/>
    </vehicle>

    <vehicle id="76" type="car" depart="19.00" departLane="0" departPos="8.4052" departSpeed="14.3317" speedFactor="1.0318" arrival="53.00">
        <route edges="152227686#1 152227686#2 722464599#0 442885355#1 155315711"/>
    </vehicle>

    <vehicle id="128" type="car" depart="31.00" departLane="0" departPos="118.9985" departSpeed="14.4345" speedFactor="1.0392" arrival="61.00">
        <route edges="-152227686#6 -152227686#2 -152227686#1 -152227686#0 -722464598"/>
    </vehicle>

    <vehicle id="109" type="bus" depart="27.00" departLane="1" departPos="86.3686" departSpeed="16.67" speedFactor="0.8715" arrival="63.00">
        <route edges="-442885101#0 -155315680#1 1056899464#0 1056899464#1"/>
    </vehicle>

    <vehicle id="15" type="truck" depart="4.00" departLane="2" departPos="34.0114" departSpeed="19.44" speedFactor="0.7896" arrival="64.00">
        <route edges="721131946#9 721131939 721131937#5 721131937#6 721131937#8"/>
    </vehicle>

    <vehicle id="24" type="motorbike" depart="6.00" departLane="1" departPos="97.8948" departSpeed="16.67" speedFactor="0.9799" arrival="74.00">
        <route edges="721126897#14 721126897#15 1149579536#0 1149579536#1 1149579536#2 1149579536#4 1149579536#5 1149579536#7"/>
    </vehicle>

    <vehicle id="13" type="truck" depart="4.00" departLane="0" departPos="100.6988" departSpeed="12.6427" speedFactor="0.9102" arrival="80.00">
        <route edges="-155315694#2 155315694#0 155315694#3 155315695#4 -155315693#2"/>
    </vehicle>

    <vehicle id="88" type="motorbike" depart="22.00" departLane="0" departPos="47.1911" departSpeed="15.3693" speedFactor="1.1065" arrival="83.00">
        <route edges="-155315695#0 1270367191#2 -322191552 778021896 778021895 -152227686#1 152227686#1"/>
    </vehicle>

    <vehicle id="292" type="motorbike" depart="73.00" departLane="0" departPos="9.5431" departSpeed="3.9936" speedFactor="1.3470" arrival="83.00">
        <route edges="721131968 -724005155#8"/>
    </vehicle>

    <vehicle id="339" type="car" depart="82.00" departLane="0" departPos="16.8782" departSpeed="13.8789" speedFactor="0.9992" arrival="83.00">
        <route edges="-722464597#2"/>
    </vehicle>

    <vehicle id="36" type="truck" depart="9.00" departLane="0" departPos="6.6657" departSpeed="3.0316" speedFactor="1.0008" arrival="87.00">
        <route edges="721131966#0 1119166765#12"/>
    </vehicle>

    <vehicle id="197" type="motorbike" depart="48.00" departLane="0" departPos="20.0185" departSpeed="8.539" speedFactor="0.9013" arrival="87.00">
        <route edges="-100954129#0 100954129#0 100954129#1 100954129#2 100954129#4"/>
    </vehicle>

    <vehicle id="130" type="car" depart="32.00" departLane="0" departPos="14.9449" departSpeed="3.2941" speedFactor="0.9128" arrival="88.00">
        <route edges="721131968 722464591#3"/>
    </vehicle>

    <vehicle id="244" type="motorbike" depart="59.00" departLane="0" departPos="55.593" departSpeed="16.67" speedFactor="1.2427" arrival="89.00">
        <route edges="205021436#1 591704635#0"/>
    </vehicle>

    <vehicle id="10" type="bus" depart="3.00" departLane="2" departPos="1.6161" departSpeed="16.67" speedFactor="0.9921" arrival="99.00">
        <route edges="721131946#8 721131940 721131937#6 721131937#8 721131937#9 721131937#10"/>
    </vehicle>

    <vehicle id="230" type="car" depart="56.00" departLane="0" departPos="162.956" departSpeed="22.22" speedFactor="1.0337" arrival="99.00">
        <route edges="-155315678#5 100954129#2"/>
    </vehicle>

    <vehicle id="267" type="motorbike" depart="65.00" departLane="2" departPos="66.1154" departSpeed="16.67" speedFactor="0.9507" arrival="103.00">
        <route edges="721131937#1 721131938 721131946#14 721131946#15"/>
    </vehicle>

    <vehicle id="72" type="DEFAULT_BIKETYPE" depart="18.00" departLane="0" departPos="2.9669" departSpeed="5.4306" speedFactor="0.9775" arrival="106.00">
        <route edges="1270367191#2 -322191552 778021896 -722464597#2"/>
    </vehicle>

    <vehicle id="92" type="car" depart="23.00" departLane="1" departPos="25.5097" departSpeed="19.5579" speedFactor="0.7555" arrival="112.00">
        <route edges="1149580107#3 1149580308 152227691#1 152227691#2 152227691#4 152227691#6 152227691#5 152227691#7 152227691#8 152227691#9 152227691#10 152227691#12 -1149579534 1149579534"/>
    </vehicle>

    <vehicle id="79" type="truck" depart="19.00" departLane="0" departPos="21.4308" departSpeed="19.44" speedFactor="1.0771" arrival="113.00">
        <route edges="-723990057#7 -723990057#6 -723990057#5 -723990057#4 -723990057#3 -723990057#2 723990059 -31905201#2 -163652291 723990056 -723990054"/>
    </vehicle>

    <vehicle id="245" type="car" depart="59.00" departLane="0" departPos="108.3949" departSpeed="22.22" speedFactor="1.1265" arrival="115.00">
        <route edges="-723990057#2 723990059 -31905201#2 -163652291 723990056 -723990054"/>
    </vehicle>

    <vehicle id="55" type="DEFAULT_BIKETYPE" depart="21.00" departLane="0" departPos="0.232" departSpeed="0.996" speedFactor="1.0169" arrival="119.00">
        <route edges="721131966#0 -850817946"/>
    </vehicle>

    <vehicle id="150" type="motorbike" depart="36.00" departLane="0" departPos="5.5399" departSpeed="16.293" speedFactor="1.1730" arrival="124.00">
        <route edges="722464597#2 778021895 152227686#2 722464599#0 -442885357 -1270367191#2 -1270367191#1 1270367192#1 1270367192#2 31905181#0"/>
    </vehicle>

    <vehicle id="34" type="car" depart="9.00" departLane="2" departPos="353.9193" departSpeed="12.2449" speedFactor="1.0719" arrival="128.00">
        <route edges="1119166765#1 1149578009 721126897#13 721126897#14 721126897#15 1149579536#0 1149579536#1 1149579536#2 1149579536#4 1149579536#5 1149579536#7 721131934#0 721131934#1 721131934#3 -851342124"/>
    </vehicle>

    <vehicle id="56" type="motorbike" depart="14.00" departLane="0" departPos="16.7372" departSpeed="16.67" speedFactor="1.2639" arrival="128.00">
        <route edges="155315680#0 -482169086#8"/>
    </vehicle>

    <vehicle id="263" type="motorbike" depart="64.00" departLane="0" departPos="18.7251" departSpeed="14.1886" speedFactor="1.0215" arrival="128.00">
        <route edges="724005155#9 724005155#10 850699983#1 721131953 721131954#0 -721131956"/>
    </vehicle>

    <vehicle id="471" type="car" depart="114.00" departLane="2" departPos="36.237" departSpeed="22.22" speedFactor="1.0346" arrival="128.00">
        <route edges="721131946#8 721131940"/>
    </vehicle>

    <vehicle id="476" type="car" depart="115.00" departLane="0" departPos="36.4802" departSpeed="13.89" speedFactor="1.0000" arrival="128.00">
        <route edges="850699983#1 721131953"/>
    </vehicle>

    <vehicle id="66" type="motorbike" depart="63.00" departLane="0" departPos="8.1444" departSpeed="1.5846" speedFactor="1.0564" arrival="131.00">
        <route edges="721131966#0 724005155#9"/>
    </vehicle>

    <vehicle id="184" type="bus" depart="45.00" departLane="0" departPos="12.4145" departSpeed="12.416" speedFactor="0.9071" arrival="132.00">
        <route edges="-100954129#0 100954129#0 100954129#1 100954129#2 155315683 723990057#5"/>
    </vehicle>

    <vehicle id="363" type="car" depart="88.00" departLane="1" departPos="174.0415" departSpeed="3.2175" speedFactor="0.9967" arrival="137.00">
        <route edges="721131934#1 721131934#3 721131934#4 -851342126"/>
    </vehicle>

    <vehicle id="406" type="car" depart="100.00" departLane="0" departPos="0.1488" departSpeed="0.0502" speedFactor="1.0939" arrival="137.00">
        <route edges="-721131941 721131941 721131937#9 721131937#10"/>
    </vehicle>

    <vehicle id="118" type="motorbike" depart="29.00" departLane="0" departPos="269.9689" departSpeed="16.67" speedFactor="1.0676" arrival="139.00">
        <route edges="722464592 722464593#1 -205021436#1 218100268 724005155#1 724005155#4 724005155#5 724005155#6 724005155#9 -724005155#9"/>
    </vehicle>

    <vehicle id="169" type="motorbike" depart="41.00" departLane="0" departPos="35.639" departSpeed="16.67" speedFactor="0.8807" arrival="140.00">
        <route edges="152227691#13 1149579537#0 1149579537#1 1149579537#2 1149579537#4 1149579537#6 1119166765#1"/>
    </vehicle>

    <vehicle id="422" type="motorbike" depart="102.00" departLane="0" departPos="0.1979" departSpeed="0.0011" speedFactor="1.1333" arrival="141.00">
        <route edges="721131961 -721131961 721131963#3"/>
    </vehicle>

    <vehicle id="140" type="car" depart="34.00" departLane="2" departPos="223.245" departSpeed="22.22" speedFactor="0.8092" arrival="143.00">
        <route edges="721131937#13 721131954#0 721131954#2 721131960#1 -721131962"/>
    </vehicle>

    <vehicle id="270" type="car" depart="65.00" departLane="2" departPos="92.9288" departSpeed="22.22" speedFactor="1.1389" arrival="144.00">
        <route edges="721131954#0 -721131956 721131958#1 850475200"/>
    </vehicle>

    <vehicle id="138" type="motorbike" depart="34.00" departLane="0" departPos="71.9022" departSpeed="16.67" speedFactor="1.0977" arrival="146.00">
        <route edges="-155315719#0 -152227697#3 350539817#0 -322191552 442885355#1 442885355#2 -442885101#2 -155315682 31905190#1"/>
    </vehicle>

    <vehicle id="329" type="motorbike" depart="79.00" departLane="0" departPos="2.4172" departSpeed="1.6918" speedFactor="1.0858" arrival="146.00">
        <route edges="-1270367191#2 1270367191#2 -322191552 442885355#1 442885355#2 -442885101#2 -442885101#1 -442885101#0 -31905195#2"/>
    </vehicle>

    <vehicle id="288" type="car" depart="70.00" departLane="0" departPos="8.7044" departSpeed="22.22" speedFactor="1.0543" arrival="148.00">
        <route edges="155775198#5 155775198#6 1270367192#2 1270367192#0 1270367191#0 1270367191#2 350539806#1 -152227697#3 152227697#3"/>
    </vehicle>

    <vehicle id="357" type="car" depart="86.00" departLane="0" departPos="382.5708" departSpeed="19.9758" speedFactor="0.8990" arrival="151.00">
        <route edges="152227697#4 -155315719#0 -152227697#3 -152227697#2"/>
    </vehicle>

    <vehicle id="409" type="car" depart="99.00" departLane="0" departPos="265.8719" departSpeed="22.22" speedFactor="0.8670" arrival="151.00">
        <route edges="721131937#8 721131937#9 721131937#10 721131937#12"/>
    </vehicle>

    <vehicle id="196" type="car" depart="48.00" departLane="0" departPos="21.4529" departSpeed="14.2789" speedFactor="1.0280" arrival="154.00">
        <route edges="1056899464#2 152227686#1 152227686#2 722464599#0 -442885357 -1270367191#2 -1270367191#1 1270367192#1 1270367192#2 31905181#0 31905181#1"/>
    </vehicle>

    <vehicle id="419" type="motorbike" depart="101.00" departLane="1" departPos="117.9243" departSpeed="9.2971" speedFactor="1.1623" arrival="156.00">
        <route edges="152227691#5 152227691#7 -850817945 850817945"/>
    </vehicle>

    <vehicle id="423" type="car" depart="102.00" departLane="1" departPos="196.2281" departSpeed="22.22" speedFactor="1.1056" arrival="159.00">
        <route edges="1149579537#2 1149579537#4 1149579537#6 1119166765#1 1119166765#3"/>
    </vehicle>

    <vehicle id="369" type="motorbike" depart="89.00" departLane="1" departPos="5.903" departSpeed="5.078" speedFactor="1.1795" arrival="160.00">
        <route edges="1149579536#0 1149579536#1 1149579536#2 1149579536#4 1149579536#5 1149579536#7 -1149578943 1149578943"/>
    </vehicle>

    <vehicle id="436" type="car" depart="105.00" departLane="0" departPos="31.2833" departSpeed="10.6092" speedFactor="0.7638" arrival="161.00">
        <route edges="-442885359#0 -442885355#2 -442885355#1 -152227686#6"/>
    </vehicle>

    <vehicle id="479" type="motorbike" depart="115.00" departLane="1" departPos="11.9487" departSpeed="16.67" speedFactor="0.9796" arrival="165.00">
        <route edges="152227691#12 -1149579534 721131934#1 721131934#3 721131934#4"/>
    </vehicle>

    <vehicle id="44" type="motorbike" depart="11.00" departLane="0" departPos="234.3481" departSpeed="14.1609" speedFactor="1.0195" arrival="168.00">
        <route edges="-155315693#8 -155315693#2 -155775198#3 -155775198#0 -155775200#1 152227691#0 152227691#1 -1149580110"/>
    </vehicle>

    <vehicle id="148" type="motorbike" depart="36.00" departLane="0" departPos="11.5497" departSpeed="16.67" speedFactor="1.0241" arrival="168.00">
        <route edges="1307054560#1 -1307054560#1 -1307054560#0 1117528626#0 -723990057#5 -723990057#4 -723990057#3 -100954129#5"/>
    </vehicle>

    <vehicle id="378" type="motorbike" depart="91.00" departLane="0" departPos="346.6079" departSpeed="16.67" speedFactor="1.1454" arrival="169.00">
        <route edges="205021436#0 1149581388"/>
    </vehicle>

    <vehicle id="121" type="bus" depart="30.00" departLane="0" departPos="40.7436" departSpeed="6.9077" speedFactor="1.0122" arrival="170.00">
        <route edges="155315695#4 -155315695#4 -155315695#3 -155315695#1 -155315695#0 1270367191#2 350539806#1 152227697#4 155315719#1 155315719#2 724005148"/>
    </vehicle>

    <vehicle id="95" type="DEFAULT_BIKETYPE" depart="23.00" departLane="0" departPos="117.2855" departSpeed="5.6206" speedFactor="1.0117" arrival="171.00">
        <route edges="1270367191#0 1270367191#2 -322191552 778021896 778021895 -152227686#1 -934270764"/>
    </vehicle>

    <vehicle id="463" type="motorbike" depart="112.00" departLane="0" departPos="118.7648" departSpeed="12.8038" speedFactor="0.9218" arrival="171.00">
        <route edges="152227686#3 442885355#1 442885355#2 -442885101#2 -442885101#1 -442885101#0 442885101#0"/>
    </vehicle>

    <vehicle id="396" type="truck" depart="96.00" departLane="0" departPos="6.5688" departSpeed="11.5454" speedFactor="0.8312" arrival="173.00">
        <route edges="721131967 721131962 721131960#4 721131960#5 721131966#0"/>
    </vehicle>

    <vehicle id="77" type="motorbike" depart="19.00" departLane="0" departPos="19.4622" departSpeed="16.67" speedFactor="1.2928" arrival="175.00">
        <route edges="-155775198#4 -155775198#3 100954129#0 100954129#1 100954129#2 100954129#4 100954129#5 -723990057#2"/>
    </vehicle>

    <vehicle id="52" type="motorbike" depart="13.00" departLane="0" departPos="1.4111" departSpeed="0.0579" speedFactor="0.9366" arrival="175.00">
        <route edges="-851342124 152227691#10 152227691#12 152227691#13 1149579537#0 1149579537#1 1149579537#2 1149579537#4 1149579537#6 1119166765#1 1149578009 721126897#13 721126897#14 721126897#15"/>
    </vehicle>

    <vehicle id="590" type="car" depart="142.00" departLane="2" departPos="247.5793" departSpeed="22.22" speedFactor="1.1921" arrival="176.00">
        <route edges="721131958#1 721131953 721131954#0"/>
    </vehicle>

    <vehicle id="654" type="motorbike" depart="157.00" departLane="1" departPos="47.7183" departSpeed="16.67" speedFactor="1.2522" arrival="176.00">
        <route edges="1149579536#5 114957953#0 1149579536#1 1149579536#2 1149579536#4 1149579536#5 1149579536#7 -1149578943 1149578943"/>
    </vehicle>

    <vehicle id="323" type="car" depart="77.60" departLane="0" departPos="2.4229" departSpeed="2.4657" speedFactor="1.0604" arrival="177.60">
        <route edges="721131966#0 350539806#1"/>
    </vehicle>

    <vehicle id="640" type="motorbike" depart="153.60" departLane="0" departPos="9.3525" departSpeed="16.67" speedFactor="1.2114" arrival="179.00">
        <route edges="-152227686#0 -722464598 31905195#1 -155315688#0"/>
    </vehicle>

    <vehicle id="132" type="motorbike" depart="31.70" departLane="2" departPos="352.2017" departSpeed="16.67" speedFactor="0.8829" arrival="180.50">
        <route edges="721131958#1 850475200 721131946#2 -721131942 721131937#12"/>
    </vehicle>

    <vehicle id="308" type="car" depart="74.00" departLane="2" departPos="4.0986" departSpeed="8.8357" speedFactor="1.0244" arrival="182.10">
        <route edges="721131937#9 1149576119 721131946#5 721131946#6 721131946#8 721131946#9 721131946#11 721131946#14 721131946#15 1119166765#1 1149578009"/>
    </vehicle>

    <vehicle id="3" type="car" depart="0.80" departLane="0" departPos="135.2506" departSpeed="22.22" speedFactor="0.8290" arrival="185.60">
        <route edges="722464592 722464593#1 -205021436#1 -205021436#0 -1307054560#5 -1307054560#4 -1307054560#3 -1307054560#2 -1307054560#1 -1307054560#0 1117528626#0 -155315678#5"/>
    </vehicle>

    <vehicle id="218" type="motorbike" depart="52.40" departLane="0" departPos="102.5494" departSpeed="16.67" speedFactor="1.2336" arrival="186.50">
        <route edges="-766326334.90 205021436#0 205021436#1 591704635#0 591704635#3 722464591#3 721131963#0"/>
    </vehicle>

    <vehicle id="660" type="motorbike" depart="158.40" departLane="2" departPos="475.7767" departSpeed="16.67" speedFactor="1.1071" arrival="186.90">
        <route edges="721131960#1 -721131962 -721131967 722464591#3"/>
    </vehicle>

    <vehicle id="613" type="motorbike" depart="147.20" departLane="0" departPos="0.2453" departSpeed="3.4171" speedFactor="1.0879" arrival="193.20">
        <route edges="721131939 -721131939 721131946#11 721131946#14"/>
    </vehicle>

    <vehicle id="90" type="truck" depart="21.60" departLane="2" departPos="20.8005" departSpeed="19.44" speedFactor="1.0031" arrival="194.40">
        <route edges="721131937#5 -721131940 721131946#9 721131946#11 721131946#14 721131946#15 1149579536#0 1149579536#1 1149579536#2 1149579536#4 1149579536#5 1149579536#7 721131934#0 721131934#1 721131934#3 721131934#4 721131934#5"/>
    </vehicle>

    <vehicle id="551" type="car" depart="132.30" departLane="1" departPos="173.3581" departSpeed="12.149" speedFactor="0.8284" arrival="195.30">
        <route edges="1149579536#2 1149579536#4 1149579536#5 1149579536#7 721131934#0 721131934#1"/>
    </vehicle>

    <vehicle id="380" type="motorbike" depart="91.20" departLane="0" departPos="0.0852" departSpeed="0.894" speedFactor="0.9001" arrival="196.60">
        <route edges="721131940 -721131940 721131946#9 721131946#11 721131946#14 721131946#15 1119166765#1 1149578009 721126897#13"/>
    </vehicle>

    <vehicle id="530" type="motorbike" depart="127.20" departLane="0" departPos="4.4903" departSpeed="16.67" speedFactor="1.1613" arrival="197.50">
        <route edges="722466947 -31905190#3 155315682 442885101#2 -442885355#2 -442885355#1 778021896 778021895 -152227686#1 -152227686#0"/>
    </vehicle>

    <vehicle id="82" type="car" depart="19.70" departLane="2" departPos="36.4177" departSpeed="18.8044" speedFactor="0.9653" arrival="197.80">
        <route edges="721131963#0 721131962 721131960#4 721131960#5 857958820#0 857958820#1 722464592 722464593#1 -205021436#1 -205021436#0 -1307054560#5"/>
    </vehicle>

    <vehicle id="498" type="car" depart="119.60" departLane="1" departPos="27.7041" departSpeed="22.22" speedFactor="1.1214" arrival="198.00">
        <route edges="1149579537#0 1149578944 1149579536#7 721131934#0 721131934#1 721131934#3 -851342124 152227691#10"/>
    </vehicle>

    <vehicle id="469" type="DEFAULT_BIKETYPE" depart="112.70" departLane="0" departPos="271.4171" departSpeed="4.5578" speedFactor="0.8204" arrival="200.10">
        <route edges="721131958#1 -850699983#1 -850699983#0"/>
    </vehicle>

    <vehicle id="683" type="motorbike" depart="164.00" departLane="0" departPos="5.4037" departSpeed="16.67" speedFactor="1.2815" arrival="200.90">
        <route edges="722464597#2 778021895 -152227686#1 -152227686#0 -1056899464#1 155315688#0 -31905195#1"/>
    </vehicle>

    <vehicle id="528" type="motorbike" depart="126.80" departLane="1" departPos="23.3804" departSpeed="16.67" speedFactor="0.8668" arrival="201.90">
        <route edges="152227691#7 -850817945 721131934#6 721131934#7 1149580107#0 1149580107#1 1149580107#2 1149580107#3 1149580107#4"/>
    </vehicle>

    <vehicle id="20" type="motorbike" depart="4.80" departLane="2" departPos="11.3835" departSpeed="16.67" speedFactor="0.8879" arrival="202.30">
        <route edges="721131937#1 721131938 721131946#14 721131946#15 1149579536#0 1149579536#1 1149579536#2 1149579536#4 1149579536#5 1149579536#7 721131934#0 721131934#1 721131934#3 721131934#4 721131934#5 721131934#6 721131934#7 1149580107#0 1149580109 -1149580109"/>
    </vehicle>

    <vehicle id="42" type="truck" depart="10.10" departLane="0" departPos="98.2644" departSpeed="19.44" speedFactor="0.8979" arrival="204.50">
        <route edges="1149580107#2 1149580107#3 1149580107#4 155315669#0 -723990057#7 -723990057#6 -723990057#5 -723990057#4 -723990057#3 -723990057#2 723990059 -31905201#2 -163652291 723990056 -723990054"/>
    </vehicle>

    <vehicle id="549" type="car" depart="131.80" departLane="1" departPos="65.2186" departSpeed="18.6463" speedFactor="1.2066" arrival="206.80">
        <route edges="442885101#0 -442885101#0 31905214"/>
    </vehicle>

    <vehicle id="555" type="motorbike" depart="133.20" departLane="0" departPos="88.4929" departSpeed="16.67" speedFactor="1.2732" arrival="207.00">
        <route edges="350539806#1 -152227697#3 350539817#0 -322191552 778021896 -722464597#2"/>
    </vehicle>

    <vehicle id="216" type="car" depart="51.90" departLane="0" departPos="1034.2045" departSpeed="22.22" speedFactor="1.0636" arrival="207.80">
        <route edges="-482169086#8 152227691#0 152227691#1 152227691#2 152227691#4 152227691#6 152227691#5 152227691#7 152227691#8 152227691#9 152227691#10 152227691#12 152227691#13 1149579537#0 1149579537#1 1149579537#2 827332718"/>
    </vehicle>

    <vehicle id="205" type="bus" depart="49.30" departLane="2" departPos="123.2038" departSpeed="16.67" speedFactor="0.9118" arrival="208.60">
        <route edges="721131954#0 -721131956 721131958#1 850475200 721131943"/>
    </vehicle>

    <vehicle id="248" type="motorbike" depart="59.60" departLane="1" departPos="31.5614" departSpeed="16.67" speedFactor="0.8227" arrival="209.10">
        <route edges="1149580107#4 482169086#0 442885101#0 442885101#1 -442885101#1"/>
    </vehicle>

    <vehicle id="126" type="car" depart="30.30" departLane="0" departPos="23.7435" departSpeed="15.6276" speedFactor="1.1251" arrival="209.40">
        <route edges="-152227686#6 722464599#0 442885355#1 442885355#2 -442885101#2 -442885101#1 -442885101#0 -482169086#8 152227691#0 152227691#1 152227691#2"/>
    </vehicle>

    <vehicle id="865" type="motorbike" depart="207.70" departLane="0" departPos="254.2064" departSpeed="16.67" speedFactor="1.1238" arrival="210.20">
        <route edges="721126897#12"/>
    </vehicle>

    <vehicle id="129" type="car" depart="31.00" departLane="0" departPos="0.203" departSpeed="1.02" speedFactor="0.8967" arrival="210.80">
        <route edges="-850817949 1149580107#2 1149580107#3 1149580107#4 155315669#0 -723990057#7 -723990057#6 -723990057#5 -723990057#4 -723990057#3 -723990057#2 723990059"/>
    </vehicle>

    <vehicle id="127" type="truck" depart="30.50" departLane="0" departPos="441.1142" departSpeed="19.2603" speedFactor="0.8668" arrival="212.70">
        <route edges="934254484#2 -1135316108 -934254484#1 -934254484#0 -1135316109 1135316109 934254484#0"/>
    </vehicle>

    <vehicle id="102" type="car" depart="24.50" departLane="1" departPos="114.0832" departSpeed="18.7184" speedFactor="1.1934" arrival="212.90">
        <route edges="152227691#9 851342124 721131934#4 721131934#5 721131934#6 721131934#7 1149580107#0 1149580107#1 1149580107#2 1149580107#3 1149580107#4 482169086#0 -155315680#1 1056899464#0 1056899464#1 -722464598"/>
    </vehicle>

    <vehicle id="48" type="car" depart="11.60" departLane="0" departPos="315.6645" departSpeed="19.818" speedFactor="0.8919" arrival="213.50">
        <route edges="934254484#0 934254484#1 934254484#2 723990057#1 723990057#3 723990057#4 723990057#5 723990057#6 723990057#7 155775198#0 155775198#1"/>
    </vehicle>

    <vehicle id="242" type="motorbike" depart="58.10" departLane="0" departPos="0.1313" departSpeed="0.5635" speedFactor="0.8013" arrival="213.80">
        <route edges="721131962 721131960#4 721131960#5 857958820#0 857958820#1 722464592 722464593#1 -205021436#1 -205021436#0 766326334"/>
    </vehicle>

    <vehicle id="366" type="motorbike" depart="87.90" departLane="0" departPos="2.387" departSpeed="3.24" speedFactor="1.1704" arrival="214.40">
        <route edges="722466951 350424623#3 350424623#5 722466948 -31905214 -482169086#8"/>
    </vehicle>

    <vehicle id="247" type="DEFAULT_BIKETYPE" depart="59.30" departLane="0" departPos="0.7998" departSpeed="2.7892" speedFactor="1.1872" arrival="215.80">
        <route edges="1149578943 721131934#0 721131934#1 721131934#3 721131934#4 721131934#5 721131934#6"/>
    </vehicle>

    <vehicle id="396" type="truck" depart="95.10" departLane="0" departPos="16.5634" departSpeed="11.5454" speedFactor="0.8312" arrival="219.10">
        <route edges="721131967 721131962 721131960#4 721131960#5 721131966#0"/>
    </vehicle>

    <vehicle id="329" type="motorbike" depart="79.20" departLane="0" departPos="2.6797" departSpeed="3.3616" speedFactor="1.0858" arrival="219.90">
        <route edges="-1270367191#2 1270367191#2 -322191552 442885355#1 442885355#2 -442885101#2 -442885101#1 -442885101#0 -31905195#2"/>
    </vehicle>

    <vehicle id="96" type="car" depart="23.10" departLane="0" departPos="111.1874" departSpeed="12.9455" speedFactor="0.9320" arrival="221.30">
        <route edges="-766326334.90 -1307054560#5 -1307054560#4 -1307054560#3 -1307054560#2 -1307054560#1 -1307054560#0 1117528626#0 -723990057#5 -723990057#4 723990057#4"/>
    </vehicle>

    <vehicle id="141" type="motorbike" depart="33.90" departLane="1" departPos="124.3743" departSpeed="16.67" speedFactor="1.1846" arrival="223.00">
        <route edges="721126897#13 721126897#14 721126897#15 1149579536#0 1149579536#1 1149579536#2 1149579536#4 1149579536#5 1149579536#7 721131934#0 721131934#1 721131934#3 721131934#4 721131934#5 721131934#6 850817946 -850817946"/>
    </vehicle>

    <vehicle id="125" type="truck" depart="30.00" departLane="2" departPos="101.4737" departSpeed="19.44" speedFactor="0.8828" arrival="223.60">
        <route edges="1119166765#1 1149578009 721126897#13 721126897#14 721126897#15 721131937#0 721131937#1 721131937#2 721131937#5 721131937#6 721131937#8 721131937#9 721131937#10 721131937#12 -721131943 721131943"/>
    </vehicle>

    <vehicle id="54" type="car" depart="13.00" departLane="1" departPos="166.249" departSpeed="9.5963" speedFactor="0.8463" arrival="224.10">
        <route edges="152227691#12 -1149579534 721131934#1 721131934#3 721131934#4 721131934#5 721131934#6 721131934#7 1149580107#0 1149580107#1 1149580107#2 1149580107#3 1149580107#4 482169086#0 442885101#0 442885101#1 442885101#2 -442885355#2 -442885355#1 778021896 778021895"/>
    </vehicle>

    <vehicle id="463" type="motorbike" depart="111.20" departLane="0" departPos="194.2075" departSpeed="12.8038" speedFactor="0.9218" arrival="224.50">
        <route edges="152227686#3 442885355#1 442885355#2 -442885101#2 -442885101#1 -442885101#0 442885101#0"/>
    </vehicle>

    <vehicle id="590" type="car" depart="141.60" departLane="2" departPos="91.60" departSpeed="22.22" speedFactor="1.1921" arrival="225.90">