<?xml version="1.0" encoding="UTF-8"?>

<!-- generated on 2025-08-20 08:47:04 by Eclipse SUMO GUI Version 1.23.1
<sumoConfiguration xmlns:xsi="http://www.w3.org/2001/XMLSchema-instance" xsi:noNamespaceSchemaLocation="http://sumo.dlr.de/xsd/sumoConfiguration.xsd">

    <input>
        <net-file value="src\PhuQuoc/phuquoc.net.xml"/>
        <route-files value="src\PhuQuoc/phuquoc.rou.xml,src\PhuQuoc/phuquoc-demo.rou.xml"/>
        <additional-files value="src\PhuQuoc/detector.add.xml"/>
    </input>

    <output>
        <tripinfo-output value="src\PhuQuoc/../../output/tripinfo_baseline.xml"/>
        <vehroute-output value="src\PhuQuoc/../../output/vehroutes_baseline.xml"/>
        <edgedata-output value="src\PhuQuoc/../../output/edgedata_baseline.xml"/>
    </output>

    <time>
        <step-length value="1"/>
    </time>

    <processing>
        <lateral-resolution value="0.5"/>
        <ignore-route-errors value="true"/>
        <time-to-teleport value="50"/>
        <tls.actuated.jam-threshold value="30"/>
    </processing>

    <routing>
        <device.rerouting.adaptation-steps value="18"/>
        <device.rerouting.adaptation-interval value="10"/>
    </routing>

    <report>
        <verbose value="true"/>
        <duration-log.statistics value="true"/>
        <no-step-log value="true"/>
    </report>

    <traci_server>
        <remote-port value="8814"/>
    </traci_server>

    <gui_only>
        <gui-settings-file value="src\PhuQuoc/phuquoc.view.xml"/>
        <start value="true"/>
    </gui_only>

</sumoConfiguration>
-->

<meandata xmlns:xsi="http://www.w3.org/2001/XMLSchema-instance" xsi:noNamespaceSchemaLocation="http://sumo.dlr.de/xsd/meandata_file.xsd">
    <interval begin="0.00" end="90.00" id="ed_config">
        <edge id="-100954129#0" sampledSeconds="86.48" traveltime="9.65" overlapTraveltime="10.78" density="16.39" laneDensity="16.39" occupancy="8.72" waitingTime="25.00" timeLoss="45.09" speed="5.99" speedRelative="0.43" departed="3" arrived="0" entered="7" left="8" laneChangedFrom="0" laneChangedTo="0"/>
        <edge id="-100954129#1" sampledSeconds="23.23" traveltime="4.44" overlapTraveltime="4.84" density="4.87" laneDensity="4.87" occupancy="2.16" waitingTime="0.00" timeLoss="4.05" speed="12.03" speedRelative="0.87" departed="2" arrived="0" entered="4" left="6" laneChangedFrom="0" laneChangedTo="0"/>
        <edge id="-100954129#3" sampledSeconds="17.68" traveltime="5.41" overlapTraveltime="5.94" density="2.88" laneDensity="2.88" occupancy="1.72" waitingTime="0.00" timeLoss="1.90" speed="12.62" speedRelative="0.91" departed="0" arrived="0" entered="3" left="3" laneChangedFrom="0" laneChangedTo="0"/>
        <edge id="-100954129#4" sampledSeconds="9.31" traveltime="4.06" overlapTraveltime="4.73" density="1.94" laneDensity="1.94" occupancy="1.30" waitingTime="0.00" timeLoss="0.28" speed="13.00" speedRelative="0.94" departed="0" arrived="0" entered="2" left="2" laneChangedFrom="0" laneChangedTo="0"/>
        <edge id="-100954129#5" sampledSeconds="28.02" traveltime="13.42" overlapTraveltime="14.07" density="1.95" laneDensity="1.95" occupancy="1.40" waitingTime="0.00" timeLoss="3.39" speed="11.87" speedRelative="0.85" departed="0" arrived="0" entered="2" left="2" laneChangedFrom="0" laneChangedTo="0"/>
        <edge id="-100954163#8" sampledSeconds="0.00" departed="0" arrived="0" entered="0" left="0" laneChangedFrom="0" laneChangedTo="0"/>
        <edge id="-100954163#9" sampledSeconds="14.47" traveltime="15.04" overlapTraveltime="16.20" density="0.83" laneDensity="0.83" occupancy="0.18" waitingTime="0.00" timeLoss="3.17" speed="12.08" speedRelative="0.87" departed="2" arrived="0" entered="0" left="2" laneChangedFrom="0" laneChangedTo="0"/>
        <edge id="-100954245#13" sampledSeconds="0.00" departed="0" arrived="0" entered="0" left="0" laneChangedFrom="0" laneChangedTo="0"/>
        <edge id="-1056899464#0" sampledSeconds="31.96" traveltime="6.90" overlapTraveltime="8.07" density="4.48" laneDensity="4.48" occupancy="2.32" waitingTime="0.00" timeLoss="9.20" speed="10.58" speedRelative="0.76" departed="0" arrived="0" entered="4" left="4" laneChangedFrom="0" laneChangedTo="0"/>
        <edge id="-1056899464#1" sampledSeconds="11.87" traveltime="5.79" overlapTraveltime="5.93" density="1.47" laneDensity="1.47" occupancy="0.32" waitingTime="0.00" timeLoss="0.84" speed="15.50" speedRelative="1.12" departed="0" arrived="0" entered="2" left="2" laneChangedFrom="0" laneChangedTo="0"/>
        <edge id="-1117528626#0" sampledSeconds="0.00" departed="0" arrived="0" entered="0" left="0" laneChangedFrom="0" laneChangedTo="0"/>
        <edge id="-1117528626#1" sampledSeconds="114.00" traveltime="82.02" overlapTraveltime="82.67" density="2.85" laneDensity="2.85" occupancy="1.00" waitingTime="65.00" timeLoss="76.88" speed="5.43" speedRelative="0.24" departed="3" arrived="0" entered="0" left="1" laneChangedFrom="0" laneChangedTo="0" teleported="1"/>
        <edge id="-1117528627#1" sampledSeconds="0.00" departed="0" arrived="0" entered="0" left="0" laneChangedFrom="0" laneChangedTo="0"/>
        <edge id="-1117528627#2" sampledSeconds="10.00" traveltime="28.74" overlapTraveltime="28.88" density="0.25" laneDensity="0.25" occupancy="0.06" waitingTime="0.00" timeLoss="0.73" speed="15.45" speedRelative="0.56" departed="0" arrived="0" entered="1" left="0" laneChangedFrom="0" laneChangedTo="0"/>
        <edge id="-1135316108" sampledSeconds="96.63" traveltime="63.90" overlapTraveltime="64.22" density="1.03" laneDensity="1.03" occupancy="0.51" waitingTime="0.00" timeLoss="8.55" speed="16.32" speedRelative="0.73" departed="2" arrived="0" entered="1" left="2" laneChangedFrom="0" laneChangedTo="0"/>
        <edge id="-1135316109" sampledSeconds="47.55" traveltime="36.02" overlapTraveltime="36.82" density="2.49" laneDensity="2.49" occupancy="0.41" waitingTime="0.00" timeLoss="7.50" speed="5.82" speedRelative="0.26" departed="1" arrived="0" entered="2" left="2" laneChangedFrom="0" laneChangedTo="0"/>
        <edge id="-1149576119" sampledSeconds="1.70" traveltime="0.34" overlapTraveltime="1.82" density="23.37" laneDensity="23.37" occupancy="1.71" waitingTime="0.00" timeLoss="0.69" speed="2.92" speedRelative="0.13" departed="1" arrived="0" entered="0" left="1" laneChangedFrom="0" laneChangedTo="0"/>
        <edge id="-1149578009" sampledSeconds="0.00" departed="0" arrived="0" entered="0" left="0" laneChangedFrom="0" laneChangedTo="0"/>
        <edge id="-1149578943" sampledSeconds="0.00" departed="0" arrived="0" entered="0" left="0" laneChangedFrom="0" laneChangedTo="0"/>
        <edge id="-1149578944" sampledSeconds="0.00" departed="0" arrived="0" entered="0" left="0" laneChangedFrom="0" laneChangedTo="0"/>
        <edge id="-1149578945" sampledSeconds="1.18" traveltime="0.18" overlapTraveltime="1.18" density="17.65" laneDensity="17.65" occupancy="1.12" waitingTime="0.00" timeLoss="0.32" speed="4.46" speedRelative="0.20" departed="0" arrived="0" entered="1" left="1" laneChangedFrom="0" laneChangedTo="0"/>
        <edge id="-1149579534" sampledSeconds="0.97" traveltime="0.05" overlapTraveltime="0.97" density="48.89" laneDensity="48.89" occupancy="1.02" waitingTime="0.00" timeLoss="0.06" speed="4.88" speedRelative="0.22" departed="0" arrived="0" entered="1" left="1" laneChangedFrom="0" laneChangedTo="0"/>
        <edge id="-1149579535" sampledSeconds="1.97" traveltime="1.35" overlapTraveltime="2.13" density="22.98" laneDensity="22.98" occupancy="1.42" waitingTime="0.00" timeLoss="1.46" speed="1.48" speedRelative="0.07" departed="2" arrived="0" entered="0" left="1" laneChangedFrom="0" laneChangedTo="0"/>
        <edge id="-1149580108" sampledSeconds="27.39" traveltime="0.31" overlapTraveltime="13.63" density="218.98" laneDensity="218.98" occupancy="29.97" waitingTime="26.00" timeLoss="26.54" speed="0.27" speedRelative="0.01" departed="0" arrived="0" entered="2" left="2" laneChangedFrom="0" laneChangedTo="0"/>
        <edge id="-1149580109" sampledSeconds="0.49" traveltime="0.04" overlapTraveltime="0.49" density="27.42" laneDensity="27.42" occupancy="0.50" waitingTime="0.00" timeLoss="0.12" speed="4.86" speedRelative="0.22" departed="0" arrived="0" entered="1" left="1" laneChangedFrom="0" laneChangedTo="0"/>
        <edge id="-1149580110" sampledSeconds="0.00" departed="0" arrived="0" entered="0" left="0" laneChangedFrom="0" laneChangedTo="0"/>
        <edge id="-1149580308" sampledSeconds="0.00" departed="0" arrived="0" entered="0" left="0" laneChangedFrom="0" laneChangedTo="0"/>
        <edge id="-1149581388" sampledSeconds="0.00" departed="0" arrived="0" entered="0" left="0" laneChangedFrom="0" laneChangedTo="0"/>
        <edge id="-1149582046#3" sampledSeconds="0.00" departed="0" arrived="0" entered="0" left="0" laneChangedFrom="0" laneChangedTo="0"/>
        <edge id="-1270367191#1" sampledSeconds="70.48" traveltime="21.11" overlapTraveltime="23.76" density="3.10" laneDensity="3.10" occupancy="1.75" waitingTime="1.00" timeLoss="27.83" speed="10.89" speedRelative="0.39" departed="1" arrived="0" entered="3" left="3" laneChangedFrom="0" laneChangedTo="0"/>
        <edge id="-1270367191#2" sampledSeconds="2.93" traveltime="1.16" overlapTraveltime="1.81" density="7.93" laneDensity="7.93" occupancy="1.14" waitingTime="0.00" timeLoss="1.57" speed="3.48" speedRelative="0.13" departed="1" arrived="0" entered="1" left="2" laneChangedFrom="0" laneChangedTo="0"/>
        <edge id="-1307054560#0" sampledSeconds="88.04" traveltime="15.84" overlapTraveltime="17.21" density="34.80" laneDensity="34.80" occupancy="15.30" waitingTime="62.00" timeLoss="77.76" speed="1.90" speedRelative="0.07" departed="0" arrived="0" entered="7" left="2" laneChangedFrom="0" laneChangedTo="0"/>
        <edge id="-1307054560#1" sampledSeconds="31.28" traveltime="4.33" overlapTraveltime="4.86" density="6.80" laneDensity="6.80" occupancy="3.38" waitingTime="0.00" timeLoss="11.74" speed="11.72" speedRelative="0.42" departed="1" arrived="0" entered="6" left="6" laneChangedFrom="0" laneChangedTo="0"/>
        <edge id="-1307054560#2" sampledSeconds="30.82" traveltime="7.22" overlapTraveltime="7.72" density="3.25" laneDensity="3.25" occupancy="2.47" waitingTime="0.00" timeLoss="7.20" speed="14.71" speedRelative="0.53" departed="0" arrived="0" entered="4" left="4" laneChangedFrom="0" laneChangedTo="0"/>
        <edge id="-1307054560#3" sampledSeconds="18.23" traveltime="5.63" overlapTraveltime="6.10" density="1.90" laneDensity="1.90" occupancy="1.50" waitingTime="0.00" timeLoss="0.22" speed="18.88" speedRelative="0.68" departed="0" arrived="0" entered="3" left="3" laneChangedFrom="0" laneChangedTo="0"/>
        <edge id="-1307054560#4" sampledSeconds="15.54" traveltime="6.09" overlapTraveltime="6.51" density="1.47" laneDensity="1.47" occupancy="1.02" waitingTime="0.00" timeLoss="0.54" speed="19.20" speedRelative="0.69" departed="1" arrived="0" entered="2" left="3" laneChangedFrom="0" laneChangedTo="0"/>
        <edge id="-1307054560#5" sampledSeconds="21.15" traveltime="10.22" overlapTraveltime="10.59" density="1.90" laneDensity="1.90" occupancy="1.14" waitingTime="0.00" timeLoss="8.58" speed="12.31" speedRelative="0.44" departed="0" arrived="0" entered="2" left="2" laneChangedFrom="0" laneChangedTo="0"/>
        <edge id="-152227686#0" sampledSeconds="12.62" traveltime="3.86" overlapTraveltime="4.22" density="2.52" laneDensity="2.52" occupancy="0.74" waitingTime="0.00" timeLoss="1.15" speed="13.91" speedRelative="1.00" departed="0" arrived="0" entered="3" left="3" laneChangedFrom="0" laneChangedTo="0"/>
        <edge id="-152227686#1" sampledSeconds="7.70" traveltime="1.68" overlapTraveltime="1.96" density="4.31" laneDensity="4.31" occupancy="1.02" waitingTime="0.00" timeLoss="1.34" speed="11.53" speedRelative="0.83" departed="1" arrived="0" entered="3" left="4" laneChangedFrom="0" laneChangedTo="0"/>
        <edge id="-152227686#2" sampledSeconds="0.86" traveltime="0.28" overlapTraveltime="0.55" density="2.39" laneDensity="2.39" occupancy="0.47" waitingTime="0.00" timeLoss="0.04" speed="14.33" speedRelative="1.03" departed="1" arrived="0" entered="1" left="2" laneChangedFrom="0" laneChangedTo="0"/>
        <edge id="-152227686#6" sampledSeconds="23.76" traveltime="20.66" overlapTraveltime="21.30" density="0.91" laneDensity="0.91" occupancy="0.40" waitingTime="0.00" timeLoss="1.46" speed="13.78" speedRelative="0.99" departed="2" arrived="0" entered="0" left="2" laneChangedFrom="0" laneChangedTo="0"/>
        <edge id="-152227697#2" sampledSeconds="0.00" departed="0" arrived="0" entered="0" left="0" laneChangedFrom="0" laneChangedTo="0"/>
        <edge id="-152227697#3" sampledSeconds="22.70" traveltime="0.96" overlapTraveltime="7.18" density="73.12" laneDensity="73.12" occupancy="19.64" waitingTime="13.00" timeLoss="19.09" speed="1.32" speedRelative="0.06" departed="1" arrived="0" entered="4" left="5" laneChangedFrom="0" laneChangedTo="0"/>
        <edge id="-155315678#4" sampledSeconds="0.00" departed="0" arrived="0" entered="0" left="0" laneChangedFrom="0" laneChangedTo="0"/>
        <edge id="-155315678#5" sampledSeconds="108.93" traveltime="45.90" overlapTraveltime="46.34" density="4.49" laneDensity="4.49" occupancy="1.16" waitingTime="30.00" timeLoss="39.46" speed="5.87" speedRelative="0.26" departed="1" arrived="0" entered="2" left="0" laneChangedFrom="0" laneChangedTo="0"/>
        <edge id="-155315680#1" sampledSeconds="35.95" traveltime="11.37" overlapTraveltime="18.98" density="4.01" laneDensity="4.01" occupancy="2.24" waitingTime="9.00" timeLoss="17.98" speed="5.61" speedRelative="0.40" departed="2" arrived="0" entered="1" left="3" laneChangedFrom="0" laneChangedTo="0"/>
        <edge id="-155315682" sampledSeconds="0.00" departed="0" arrived="0" entered="0" left="0" laneChangedFrom="0" laneChangedTo="0"/>
        <edge id="-155315683" sampledSeconds="8.93" traveltime="20.45" overlapTraveltime="24.74" density="0.49" laneDensity="0.49" occupancy="0.20" waitingTime="0.00" timeLoss="4.22" speed="8.35" speedRelative="0.60" departed="1" arrived="0" entered="0" left="1" laneChangedFrom="0" laneChangedTo="0"/>
        <edge id="-155315688#0" sampledSeconds="10.74" traveltime="7.03" overlapTraveltime="8.68" density="1.79" laneDensity="1.79" occupancy="1.26" waitingTime="0.00" timeLoss="2.66" speed="8.61" speedRelative="0.62" departed="2" arrived="0" entered="0" left="2" laneChangedFrom="0" laneChangedTo="0"/>
        <edge id="-155315688#1" sampledSeconds="0.00" departed="0" arrived="0" entered="0" left="0" laneChangedFrom="0" laneChangedTo="0"/>
        <edge id="-155315693#2" sampledSeconds="55.03" traveltime="22.27" overlapTraveltime="22.72" density="2.23" laneDensity="2.23" occupancy="1.04" waitingTime="0.00" timeLoss="5.53" speed="12.28" speedRelative="0.88" departed="0" arrived="1" entered="4" left="1" laneChangedFrom="0" laneChangedTo="0"/>
        <edge id="-155315693#8" sampledSeconds="15.52" traveltime="30.90" overlapTraveltime="31.11" density="0.42" laneDensity="0.42" occupancy="0.10" waitingTime="0.00" timeLoss="1.01" speed="13.26" speedRelative="0.95" departed="2" arrived="0" entered="0" left="1" laneChangedFrom="0" laneChangedTo="0"/>
        <edge id="-155315694#2" sampledSeconds="25.75" traveltime="22.65" overlapTraveltime="25.39" density="1.28" laneDensity="1.28" occupancy="0.63" waitingTime="0.00" timeLoss="8.35" speed="8.98" speedRelative="0.65" departed="2" arrived="0" entered="0" left="2" laneChangedFrom="0" laneChangedTo="0"/>
        <edge id="-155315694#3" sampledSeconds="0.00" departed="0" arrived="0" entered="0" left="0" laneChangedFrom="0" laneChangedTo="0"/>
        <edge id="-155315695#0" sampledSeconds="36.56" traveltime="9.18" overlapTraveltime="10.29" density="3.92" laneDensity="3.92" occupancy="2.57" waitingTime="0.00" timeLoss="6.30" speed="10.77" speedRelative="0.78" departed="1" arrived="0" entered="3" left="4" laneChangedFrom="0" laneChangedTo="0"/>
        <edge id="-155315695#1" sampledSeconds="20.41" traveltime="6.02" overlapTraveltime="6.83" density="5.52" laneDensity="5.52" occupancy="3.61" waitingTime="0.00" timeLoss="9.54" speed="7.24" speedRelative="0.52" departed="0" arrived="0" entered="3" left="3" laneChangedFrom="0" laneChangedTo="0"/>
        <edge id="-155315695#3" sampledSeconds="33.07" traveltime="19.81" overlapTraveltime="23.34" density="1.50" laneDensity="1.50" occupancy="1.42" waitingTime="0.00" timeLoss="6.07" speed="10.91" speedRelative="0.79" departed="2" arrived="0" entered="1" left="3" laneChangedFrom="0" laneChangedTo="0"/>
        <edge id="-155315695#4" sampledSeconds="8.08" traveltime="7.02" overlapTraveltime="8.08" density="1.76" laneDensity="1.76" occupancy="1.62" waitingTime="0.00" timeLoss="3.59" speed="7.81" speedRelative="0.56" departed="0" arrived="0" entered="1" left="1" laneChangedFrom="0" laneChangedTo="0"/>
        <edge id="-155315711" sampledSeconds="14.36" traveltime="7.89" overlapTraveltime="8.53" density="1.99" laneDensity="1.99" occupancy="0.63" waitingTime="0.00" timeLoss="2.66" speed="9.82" speedRelative="0.71" departed="1" arrived="0" entered="1" left="2" laneChangedFrom="0" laneChangedTo="0"/>
        <edge id="-155315719#0" sampledSeconds="66.41" traveltime="27.66" overlapTraveltime="28.31" density="1.57" laneDensity="1.57" occupancy="0.76" waitingTime="0.00" timeLoss="5.30" speed="16.74" speedRelative="0.75" departed="3" arrived="0" entered="1" left="4" laneChangedFrom="0" laneChangedTo="0"/>
        <edge id="-155315719#1" sampledSeconds="14.85" traveltime="9.96" overlapTraveltime="10.35" density="1.03" laneDensity="1.03" occupancy="0.45" waitingTime="0.00" timeLoss="1.24" speed="15.86" speedRelative="0.71" departed="2" arrived="0" entered="0" left="2" laneChangedFrom="0" laneChangedTo="0"/>
        <edge id="-155315719#15" sampledSeconds="76.00" traveltime="153.50" overlapTraveltime="153.78" density="0.96" laneDensity="0.96" occupancy="0.15" waitingTime="0.00" timeLoss="3.87" speed="5.73" speedRelative="0.26" departed="1" arrived="0" entered="0" left="0" laneChangedFrom="0" laneChangedTo="0"/>
        <edge id="-155315719#2" sampledSeconds="0.00" departed="0" arrived="0" entered="0" left="0" laneChangedFrom="0" laneChangedTo="0"/>
        <edge id="-155315719#8" sampledSeconds="0.00" departed="0" arrived="0" entered="0" left="0" laneChangedFrom="0" laneChangedTo="0"/>
        <edge id="-155775198#0" sampledSeconds="122.31" traveltime="34.96" overlapTraveltime="35.54" density="3.59" laneDensity="3.59" occupancy="2.21" waitingTime="32.00" timeLoss="54.26" speed="10.82" speedRelative="0.39" departed="0" arrived="0" entered="4" left="0" laneChangedFrom="0" laneChangedTo="0"/>
        <edge id="-155775198#3" sampledSeconds="136.89" traveltime="44.14" overlapTraveltime="45.72" density="3.87" laneDensity="3.87" occupancy="1.91" waitingTime="46.00" timeLoss="65.44" speed="8.70" speedRelative="0.31" departed="0" arrived="0" entered="3" left="2" laneChangedFrom="0" laneChangedTo="0"/>
        <edge id="-155775198#4" sampledSeconds="129.25" traveltime="26.55" overlapTraveltime="28.65" density="45.39" laneDensity="45.39" occupancy="22.73" waitingTime="99.00" timeLoss="118.53" speed="1.29" speedRelative="0.05" departed="2" arrived="0" entered="6" left="2" laneChangedFrom="0" laneChangedTo="0"/>
        <edge id="-155775198#5" sampledSeconds="11.79" traveltime="1.23" overlapTraveltime="1.74" density="12.22" laneDensity="12.22" occupancy="3.82" waitingTime="0.00" timeLoss="6.01" speed="9.05" speedRelative="0.33" departed="0" arrived="0" entered="7" left="6" laneChangedFrom="0" laneChangedTo="0"/>
        <edge id="-155775198#6" sampledSeconds="87.43" traveltime="13.88" overlapTraveltime="14.31" density="4.90" laneDensity="4.90" occupancy="3.19" waitingTime="0.00" timeLoss="17.61" speed="14.32" speedRelative="0.52" departed="0" arrived="0" entered="7" left="5" laneChangedFrom="0" laneChangedTo="0"/>
        <edge id="-155775200#1" sampledSeconds="138.16" traveltime="46.57" overlapTraveltime="46.84" density="2.07" laneDensity="2.07" occupancy="0.68" waitingTime="0.00" timeLoss="11.43" speed="15.89" speedRelative="0.57" departed="2" arrived="0" entered="4" left="1" laneChangedFrom="0" laneChangedTo="0"/>
        <edge id="-163652291" sampledSeconds="23.15" traveltime="9.80" overlapTraveltime="11.69" density="7.15" laneDensity="7.15" occupancy="4.94" waitingTime="13.00" timeLoss="17.70" speed="3.69" speedRelative="0.13" departed="0" arrived="0" entered="3" left="1" laneChangedFrom="0" laneChangedTo="0"/>
        <edge id="-205021436#0" sampledSeconds="173.53" traveltime="39.14" overlapTraveltime="39.52" density="3.44" laneDensity="3.44" occupancy="1.85" waitingTime="31.00" timeLoss="52.82" speed="14.31" speedRelative="0.51" departed="0" arrived="0" entered="8" left="0" laneChangedFrom="0" laneChangedTo="0"/>
        <edge id="-205021436#1" sampledSeconds="72.61" traveltime="6.74" overlapTraveltime="7.26" density="7.84" laneDensity="7.84" occupancy="3.43" waitingTime="0.00" timeLoss="13.31" speed="14.81" speedRelative="0.53" departed="0" arrived="0" entered="10" left="10" laneChangedFrom="0" laneChangedTo="0"/>
        <edge id="-271412010" sampledSeconds="21.06" traveltime="29.13" overlapTraveltime="31.01" density="0.72" laneDensity="0.72" occupancy="0.84" waitingTime="0.00" timeLoss="1.72" speed="10.81" speedRelative="0.78" departed="1" arrived="0" entered="0" left="1" laneChangedFrom="0" laneChangedTo="0"/>
        <edge id="-31905181#0" sampledSeconds="45.59" traveltime="16.33" overlapTraveltime="19.07" density="3.33" laneDensity="3.33" occupancy="2.55" waitingTime="2.00" timeLoss="14.93" speed="8.44" speedRelative="0.61" departed="1" arrived="0" entered="3" left="3" laneChangedFrom="0" laneChangedTo="0"/>
        <edge id="-31905181#3" sampledSeconds="59.34" traveltime="29.14" overlapTraveltime="29.66" density="1.96" laneDensity="1.96" occupancy="1.29" waitingTime="0.00" timeLoss="8.18" speed="11.56" speedRelative="0.83" departed="0" arrived="0" entered="2" left="2" laneChangedFrom="0" laneChangedTo="0"/>
        <edge id="-31905190#0" sampledSeconds="0.00" departed="0" arrived="0" entered="0" left="0" laneChangedFrom="0" laneChangedTo="0"/>
        <edge id="-31905190#3" sampledSeconds="0.00" departed="0" arrived="0" entered="0" left="0" laneChangedFrom="0" laneChangedTo="0"/>
        <edge id="-31905195#1" sampledSeconds="0.00" departed="0" arrived="0" entered="0" left="0" laneChangedFrom="0" laneChangedTo="0"/>
        <edge id="-31905195#2" sampledSeconds="0.00" departed="0" arrived="0" entered="0" left="0" laneChangedFrom="0" laneChangedTo="0"/>
        <edge id="-31905201#2" sampledSeconds="41.06" traveltime="18.65" overlapTraveltime="19.02" density="1.20" laneDensity="1.20" occupancy="0.73" waitingTime="0.00" timeLoss="1.14" speed="20.26" speedRelative="0.73" departed="1" arrived="0" entered="2" left="3" laneChangedFrom="0" laneChangedTo="0"/>
        <edge id="-31905214" sampledSeconds="66.65" traveltime="13.46" overlapTraveltime="14.94" density="6.23" laneDensity="6.23" occupancy="3.06" waitingTime="16.00" timeLoss="37.41" speed="8.31" speedRelative="0.30" departed="0" arrived="0" entered="6" left="4" laneChangedFrom="0" laneChangedTo="0"/>
        <edge id="-322191552" sampledSeconds="294.97" traveltime="49.16" overlapTraveltime="49.44" density="9.26" laneDensity="9.26" occupancy="1.60" waitingTime="0.00" timeLoss="25.73" speed="7.19" speedRelative="0.26" departed="0" arrived="0" entered="8" left="3" laneChangedFrom="0" laneChangedTo="0"/>
        <edge id="-406038877" sampledSeconds="0.00" departed="0" arrived="0" entered="0" left="0" laneChangedFrom="0" laneChangedTo="0"/>
        <edge id="-442885101#0" sampledSeconds="389.61" traveltime="37.58" overlapTraveltime="38.21" density="33.25" laneDensity="16.62" occupancy="4.90" waitingTime="265.00" timeLoss="313.39" speed="3.49" speedRelative="0.13" departed="2" arrived="0" entered="10" left="6" laneChangedFrom="4" laneChangedTo="4" teleported="5"/>
        <edge id="-442885101#1" sampledSeconds="25.61" traveltime="2.68" overlapTraveltime="2.88" density="7.86" laneDensity="3.93" occupancy="1.09" waitingTime="0.00" timeLoss="6.51" speed="13.62" speedRelative="0.49" departed="1" arrived="0" entered="8" left="9" laneChangedFrom="1" laneChangedTo="1"/>
        <edge id="-442885101#2" sampledSeconds="31.70" traveltime="4.55" overlapTraveltime="4.82" density="7.16" laneDensity="3.58" occupancy="1.04" waitingTime="0.00" timeLoss="12.84" speed="10.96" speedRelative="0.39" departed="1" arrived="0" entered="7" left="6" laneChangedFrom="0" laneChangedTo="0"/>
        <edge id="-442885355#1" sampledSeconds="9.90" traveltime="7.88" overlapTraveltime="9.29" density="1.74" laneDensity="1.74" occupancy="0.31" waitingTime="0.00" timeLoss="4.85" speed="7.03" speedRelative="0.25" departed="1" arrived="0" entered="1" left="2" laneChangedFrom="0" laneChangedTo="0"/>
        <edge id="-442885355#2" sampledSeconds="27.87" traveltime="3.93" overlapTraveltime="18.28" density="9.96" laneDensity="9.96" occupancy="3.10" waitingTime="20.00" timeLoss="23.75" speed="1.93" speedRelative="0.07" departed="1" arrived="0" entered="1" left="2" laneChangedFrom="0" laneChangedTo="0"/>
        <edge id="-442885357" sampledSeconds="75.07" traveltime="26.01" overlapTraveltime="26.20" density="2.35" laneDensity="2.35" occupancy="0.62" waitingTime="0.00" timeLoss="11.15" speed="13.63" speedRelative="0.49" departed="0" arrived="0" entered="4" left="1" laneChangedFrom="0" laneChangedTo="0"/>
        <edge id="-442885359#0" sampledSeconds="2.98" traveltime="5.90" overlapTraveltime="6.32" density="0.46" laneDensity="0.46" occupancy="0.10" waitingTime="0.00" timeLoss="0.47" speed="11.80" speedRelative="0.85" departed="1" arrived="0" entered="0" left="1" laneChangedFrom="0" laneChangedTo="0"/>
        <edge id="-442885359#2" sampledSeconds="0.00" departed="0" arrived="0" entered="0" left="0" laneChangedFrom="0" laneChangedTo="0"/>
        <edge id="-482169086#8" sampledSeconds="639.77" traveltime="87.22" overlapTraveltime="87.45" density="5.34" laneDensity="2.67" occupancy="0.93" waitingTime="0.00" timeLoss="106.87" speed="15.25" speedRelative="0.55" departed="2" arrived="0" entered="20" left="0" laneChangedFrom="5" laneChangedTo="5"/>
        <edge id="-721131932" sampledSeconds="3.66" traveltime="1.31" overlapTraveltime="4.21" density="31.08" laneDensity="31.08" occupancy="3.87" waitingTime="0.00" timeLoss="2.23" speed="2.21" speedRelative="0.10" departed="1" arrived="0" entered="0" left="1" laneChangedFrom="0" laneChangedTo="0"/>
        <edge id="-721131933#1" sampledSeconds="0.00" departed="0" arrived="0" entered="0" left="0" laneChangedFrom="0" laneChangedTo="0"/>
        <edge id="-721131938" sampledSeconds="2.90" traveltime="0.07" overlapTraveltime="2.90" density="160.94" laneDensity="160.94" occupancy="3.16" waitingTime="0.00" timeLoss="1.47" speed="4.21" speedRelative="0.19" departed="0" arrived="0" entered="1" left="1" laneChangedFrom="0" laneChangedTo="0"/>
        <edge id="-721131939" sampledSeconds="5.92" traveltime="1.74" overlapTraveltime="4.30" density="38.25" laneDensity="38.25" occupancy="5.50" waitingTime="0.00" timeLoss="3.81" speed="1.92" speedRelative="0.09" departed="2" arrived="0" entered="0" left="2" laneChangedFrom="0" laneChangedTo="0"/>
        <edge id="-721131940" sampledSeconds="2.08" traveltime="0.04" overlapTraveltime="1.05" density="105.11" laneDensity="105.11" occupancy="2.20" waitingTime="0.00" timeLoss="0.54" speed="5.83" speedRelative="0.26" departed="0" arrived="1" entered="3" left="2" laneChangedFrom="0" laneChangedTo="0"/>
        <edge id="-721131941" sampledSeconds="4.27" traveltime="0.85" overlapTraveltime="2.71" density="237.18" laneDensity="237.18" occupancy="3.41" waitingTime="1.00" timeLoss="3.36" speed="1.66" speedRelative="0.07" departed="0" arrived="0" entered="2" left="2" laneChangedFrom="0" laneChangedTo="0"/>
        <edge id="-721131942" sampledSeconds="4.18" traveltime="0.31" overlapTraveltime="1.58" density="39.36" laneDensity="39.36" occupancy="3.76" waitingTime="0.00" timeLoss="1.52" speed="4.34" speedRelative="0.20" departed="1" arrived="0" entered="2" left="3" laneChangedFrom="0" laneChangedTo="0"/>
        <edge id="-721131943" sampledSeconds="5.68" traveltime="3.74" overlapTraveltime="10.17" density="315.64" laneDensity="315.64" occupancy="3.13" waitingTime="5.00" timeLoss="5.23" speed="0.43" speedRelative="0.02" departed="1" arrived="0" entered="1" left="1" laneChangedFrom="0" laneChangedTo="0"/>
        <edge id="-721131953" sampledSeconds="10.24" traveltime="74.26" overlapTraveltime="10.39" density="568.66" laneDensity="568.66" occupancy="10.81" waitingTime="6.00" timeLoss="9.47" speed="1.17" speedRelative="0.08" departed="1" arrived="0" entered="0" left="1" laneChangedFrom="0" laneChangedTo="0"/>
        <edge id="-721131956" sampledSeconds="5.06" traveltime="0.41" overlapTraveltime="1.79" density="29.42" laneDensity="29.42" occupancy="4.15" waitingTime="0.00" timeLoss="1.51" speed="5.30" speedRelative="0.24" departed="0" arrived="0" entered="4" left="4" laneChangedFrom="0" laneChangedTo="0"/>
        <edge id="-721131961" sampledSeconds="0.00" departed="0" arrived="0" entered="0" left="0" laneChangedFrom="0" laneChangedTo="0"/>
        <edge id="-721131962" sampledSeconds="4.06" traveltime="0.15" overlapTraveltime="4.06" density="225.65" laneDensity="225.65" occupancy="4.42" waitingTime="0.00" timeLoss="1.77" speed="3.00" speedRelative="0.22" departed="1" arrived="0" entered="0" left="1" laneChangedFrom="0" laneChangedTo="0"/>
        <edge id="-721131967" sampledSeconds="9.74" traveltime="13.17" overlapTraveltime="13.62" density="1.33" laneDensity="1.33" occupancy="0.21" waitingTime="0.00" timeLoss="0.97" speed="6.08" speedRelative="0.44" departed="1" arrived="0" entered="0" left="1" laneChangedFrom="0" laneChangedTo="0"/>