<?xml version="1.0" encoding="UTF-8"?>

<!-- generated on 2025-08-20 14:20:08 by Eclipse SUMO GUI Version 1.23.1
<sumoConfiguration xmlns:xsi="http://www.w3.org/2001/XMLSchema-instance" xsi:noNamespaceSchemaLocation="http://sumo.dlr.de/xsd/sumoConfiguration.xsd">

    <input>
        <net-file value="phuquoc.net.xml"/>
        <route-files value="phuquoc.rou.xml,phuquoc-demo.rou.xml"/>
        <additional-files value="detector.add.xml"/>
    </input>

    <output>
        <tripinfo-output value="../../output/tripinfo_baseline.xml"/>
        <vehroute-output value="../../output/vehroutes_baseline.xml"/>
        <edgedata-output value="../../output/edgedata_baseline.xml"/>
    </output>

    <time>
        <step-length value="0.1"/>
    </time>

    <processing>
        <lateral-resolution value="0.5"/>
        <ignore-route-errors value="true"/>
        <time-to-teleport value="50"/>
        <tls.actuated.jam-threshold value="30"/>
    </processing>

    <routing>
        <device.rerouting.adaptation-steps value="18"/>
        <device.rerouting.adaptation-interval value="10"/>
    </routing>

    <report>
        <verbose value="true"/>
        <duration-log.statistics value="true"/>
        <no-step-log value="true"/>
    </report>

    <gui_only>
        <gui-settings-file value="phuquoc.view.xml"/>
    </gui_only>

</sumoConfiguration>
-->

<meandata xmlns:xsi="http://www.w3.org/2001/XMLSchema-instance" xsi:noNamespaceSchemaLocation="http://sumo.dlr.de/xsd/meandata_file.xsd">
    <interval begin="0.00" end="90.00" id="ed_config">
        <edge id="-100954129#0" sampledSeconds="85.72" traveltime="11.20" overlapTraveltime="12.30" density="16.24" laneDensity="16.24" occupancy="9.12" waitingTime="25.40" timeLoss="48.92" speed="5.28" speedRelative="0.38" departed="3" arrived="0" entered="6" left="7" laneChangedFrom="0" laneChangedTo="0"/>
        <edge id="-100954129#1" sampledSeconds="22.03" traveltime="4.98" overlapTraveltime="5.37" density="4.62" laneDensity="4.62" occupancy="2.06" waitingTime="0.00" timeLoss="5.61" speed="10.84" speedRelative="0.78" departed="2" arrived="0" entered="3" left="5" laneChangedFrom="0" laneChangedTo="0"/>
        <edge id="-100954129#3" sampledSeconds="12.11" traveltime="5.40" overlapTraveltime="6.09" density="1.98" laneDensity="1.98" occupancy="1.49" waitingTime="0.00" timeLoss="0.75" speed="12.61" speedRelative="0.91" departed="0" arrived="0" entered="2" left="2" laneChangedFrom="0" laneChangedTo="0"/>
        <edge id="-100954129#4" sampledSeconds="5.54" traveltime="4.53" overlapTraveltime="5.54" density="1.15" laneDensity="1.15" occupancy="1.13" waitingTime="0.00" timeLoss="0.01" speed="11.80" speedRelative="0.85" departed="0" arrived="0" entered="1" left="1" laneChangedFrom="0" laneChangedTo="0"/>
        <edge id="-100954129#5" sampledSeconds="15.80" traveltime="14.78" overlapTraveltime="15.80" density="1.10" laneDensity="1.10" occupancy="1.21" waitingTime="0.00" timeLoss="1.30" speed="10.84" speedRelative="0.78" departed="0" arrived="0" entered="1" left="1" laneChangedFrom="0" laneChangedTo="0"/>
        <edge id="-100954163#8" sampledSeconds="0.00" departed="0" arrived="0" entered="0" left="0" laneChangedFrom="0" laneChangedTo="0"/>
        <edge id="-100954163#9" sampledSeconds="20.18" traveltime="13.00" overlapTraveltime="13.58" density="1.16" laneDensity="1.16" occupancy="0.25" waitingTime="0.00" timeLoss="2.04" speed="14.40" speedRelative="1.04" departed="2" arrived="0" entered="0" left="2" laneChangedFrom="0" laneChangedTo="0"/>
        <edge id="-100954245#13" sampledSeconds="0.00" departed="0" arrived="0" entered="0" left="0" laneChangedFrom="0" laneChangedTo="0"/>
        <edge id="-1056899464#0" sampledSeconds="31.81" traveltime="6.94" overlapTraveltime="8.04" density="4.46" laneDensity="4.46" occupancy="2.37" waitingTime="0.00" timeLoss="8.14" speed="10.63" speedRelative="0.77" departed="0" arrived="0" entered="4" left="4" laneChangedFrom="0" laneChangedTo="0"/>
        <edge id="-1056899464#1" sampledSeconds="11.10" traveltime="5.41" overlapTraveltime="5.55" density="1.37" laneDensity="1.37" occupancy="0.29" waitingTime="0.00" timeLoss="0.06" speed="16.58" speedRelative="1.19" departed="0" arrived="0" entered="2" left="2" laneChangedFrom="0" laneChangedTo="0"/>
        <edge id="-1117528626#0" sampledSeconds="0.00" departed="0" arrived="0" entered="0" left="0" laneChangedFrom="0" laneChangedTo="0"/>
        <edge id="-1117528626#1" sampledSeconds="72.93" traveltime="74.77" overlapTraveltime="75.48" density="1.82" laneDensity="1.82" occupancy="0.80" waitingTime="38.20" timeLoss="46.49" speed="5.95" speedRelative="0.27" departed="3" arrived="0" entered="0" left="1" laneChangedFrom="0" laneChangedTo="0"/>
        <edge id="-1117528627#1" sampledSeconds="0.00" departed="0" arrived="0" entered="0" left="0" laneChangedFrom="0" laneChangedTo="0"/>
        <edge id="-1117528627#2" sampledSeconds="54.68" traveltime="54.80" overlapTraveltime="55.07" density="1.37" laneDensity="1.37" occupancy="0.30" waitingTime="24.00" timeLoss="28.10" speed="8.10" speedRelative="0.29" departed="0" arrived="0" entered="1" left="0" laneChangedFrom="0" laneChangedTo="0"/>
        <edge id="-1135316108" sampledSeconds="117.07" traveltime="64.03" overlapTraveltime="64.23" density="1.25" laneDensity="1.25" occupancy="0.41" waitingTime="0.00" timeLoss="5.42" speed="16.29" speedRelative="0.73" departed="2" arrived="0" entered="1" left="1" laneChangedFrom="0" laneChangedTo="0"/>
        <edge id="-1135316109" sampledSeconds="44.18" traveltime="34.42" overlapTraveltime="34.94" density="2.31" laneDensity="2.31" occupancy="0.37" waitingTime="0.00" timeLoss="4.68" speed="6.13" speedRelative="0.28" departed="1" arrived="0" entered="1" left="2" laneChangedFrom="0" laneChangedTo="0"/>
        <edge id="-1149576119" sampledSeconds="1.61" traveltime="0.36" overlapTraveltime="1.69" density="22.06" laneDensity="22.06" occupancy="1.57" waitingTime="0.00" timeLoss="0.35" speed="3.14" speedRelative="0.14" departed="1" arrived="0" entered="0" left="1" laneChangedFrom="0" laneChangedTo="0"/>
        <edge id="-1149578009" sampledSeconds="0.00" departed="0" arrived="0" entered="0" left="0" laneChangedFrom="0" laneChangedTo="0"/>
        <edge id="-1149578943" sampledSeconds="0.00" departed="0" arrived="0" entered="0" left="0" laneChangedFrom="0" laneChangedTo="0"/>
        <edge id="-1149578944" sampledSeconds="0.37" traveltime="0.06" overlapTraveltime="0.37" density="12.51" laneDensity="12.51" occupancy="0.34" waitingTime="0.00" timeLoss="0.00" speed="5.19" speedRelative="0.23" departed="0" arrived="0" entered="1" left="1" laneChangedFrom="0" laneChangedTo="0"/>
        <edge id="-1149578945" sampledSeconds="1.22" traveltime="0.21" overlapTraveltime="1.22" density="18.29" laneDensity="18.29" occupancy="1.15" waitingTime="0.00" timeLoss="0.31" speed="4.30" speedRelative="0.19" departed="0" arrived="0" entered="1" left="1" laneChangedFrom="0" laneChangedTo="0"/>
        <edge id="-1149579534" sampledSeconds="0.92" traveltime="0.04" overlapTraveltime="0.92" density="46.33" laneDensity="46.33" occupancy="0.97" waitingTime="0.00" timeLoss="0.01" speed="5.15" speedRelative="0.23" departed="0" arrived="0" entered="1" left="1" laneChangedFrom="0" laneChangedTo="0"/>
        <edge id="-1149579535" sampledSeconds="0.90" traveltime="0.36" overlapTraveltime="0.99" density="10.51" laneDensity="10.51" occupancy="0.76" waitingTime="0.00" timeLoss="0.38" speed="3.19" speedRelative="0.14" departed="1" arrived="0" entered="0" left="1" laneChangedFrom="0" laneChangedTo="0"/>
        <edge id="-1149580108" sampledSeconds="32.24" traveltime="16.39" overlapTraveltime="16.40" density="257.73" laneDensity="257.73" occupancy="32.80" waitingTime="30.60" timeLoss="31.43" speed="0.22" speedRelative="0.01" departed="0" arrived="0" entered="2" left="1" laneChangedFrom="0" laneChangedTo="0"/>
        <edge id="-1149580109" sampledSeconds="0.42" traveltime="0.04" overlapTraveltime="0.42" density="23.31" laneDensity="23.31" occupancy="0.43" waitingTime="0.00" timeLoss="0.05" speed="5.72" speedRelative="0.26" departed="0" arrived="0" entered="1" left="1" laneChangedFrom="0" laneChangedTo="0"/>
        <edge id="-1149580110" sampledSeconds="0.00" departed="0" arrived="0" entered="0" left="0" laneChangedFrom="0" laneChangedTo="0"/>
        <edge id="-1149580308" sampledSeconds="0.00" departed="0" arrived="0" entered="0" left="0" laneChangedFrom="0" laneChangedTo="0"/>
        <edge id="-1149581388" sampledSeconds="0.00" departed="0" arrived="0" entered="0" left="0" laneChangedFrom="0" laneChangedTo="0"/>
        <edge id="-1149582046#3" sampledSeconds="0.00" departed="0" arrived="0" entered="0" left="0" laneChangedFrom="0" laneChangedTo="0"/>
        <edge id="-1270367191#1" sampledSeconds="68.21" traveltime="19.20" overlapTraveltime="20.80" density="3.00" laneDensity="3.00" occupancy="1.73" waitingTime="1.80" timeLoss="21.42" speed="12.45" speedRelative="0.45" departed="1" arrived="0" entered="4" left="3" laneChangedFrom="0" laneChangedTo="0"/>
        <edge id="-1270367191#2" sampledSeconds="2.56" traveltime="0.62" overlapTraveltime="0.99" density="6.92" laneDensity="6.92" occupancy="1.02" waitingTime="0.00" timeLoss="1.11" speed="6.35" speedRelative="0.23" departed="1" arrived="0" entered="2" left="3" laneChangedFrom="0" laneChangedTo="0"/>
        <edge id="-1307054560#0" sampledSeconds="84.27" traveltime="17.07" overlapTraveltime="18.23" density="33.31" laneDensity="33.31" occupancy="13.73" waitingTime="60.50" timeLoss="75.11" speed="1.78" speedRelative="0.06" departed="0" arrived="0" entered="6" left="2" laneChangedFrom="0" laneChangedTo="0"/>
        <edge id="-1307054560#1" sampledSeconds="35.69" traveltime="4.52" overlapTraveltime="5.33" density="7.76" laneDensity="7.76" occupancy="3.83" waitingTime="0.00" timeLoss="15.27" speed="10.70" speedRelative="0.39" departed="1" arrived="0" entered="6" left="6" laneChangedFrom="0" laneChangedTo="0"/>
        <edge id="-1307054560#2" sampledSeconds="31.10" traveltime="7.26" overlapTraveltime="7.79" density="3.28" laneDensity="3.28" occupancy="2.49" waitingTime="0.00" timeLoss="7.48" speed="14.58" speedRelative="0.52" departed="0" arrived="0" entered="4" left="4" laneChangedFrom="0" laneChangedTo="0"/>
        <edge id="-1307054560#3" sampledSeconds="18.03" traveltime="5.57" overlapTraveltime="6.03" density="1.88" laneDensity="1.88" occupancy="1.48" waitingTime="0.00" timeLoss="0.02" speed="19.09" speedRelative="0.69" departed="0" arrived="0" entered="3" left="3" laneChangedFrom="0" laneChangedTo="0"/>
        <edge id="-1307054560#4" sampledSeconds="15.29" traveltime="6.04" overlapTraveltime="6.46" density="1.45" laneDensity="1.45" occupancy="1.00" waitingTime="0.00" timeLoss="0.45" speed="19.35" speedRelative="0.70" departed="1" arrived="0" entered="2" left="3" laneChangedFrom="0" laneChangedTo="0"/>
        <edge id="-1307054560#5" sampledSeconds="20.80" traveltime="10.04" overlapTraveltime="10.42" density="1.86" laneDensity="1.86" occupancy="1.13" waitingTime="0.00" timeLoss="8.23" speed="12.52" speedRelative="0.45" departed="0" arrived="0" entered="2" left="2" laneChangedFrom="0" laneChangedTo="0"/>
        <edge id="-152227686#0" sampledSeconds="12.02" traveltime="3.69" overlapTraveltime="4.02" density="2.40" laneDensity="2.40" occupancy="0.71" waitingTime="0.00" timeLoss="0.57" speed="14.60" speedRelative="1.05" departed="0" arrived="0" entered="3" left="3" laneChangedFrom="0" laneChangedTo="0"/>
        <edge id="-152227686#1" sampledSeconds="6.93" traveltime="1.55" overlapTraveltime="1.82" density="3.88" laneDensity="3.88" occupancy="0.92" waitingTime="0.00" timeLoss="1.07" speed="12.45" speedRelative="0.90" departed="1" arrived="0" entered="3" left="4" laneChangedFrom="0" laneChangedTo="0"/>
        <edge id="-152227686#2" sampledSeconds="0.87" traveltime="0.26" overlapTraveltime="0.51" density="2.41" laneDensity="2.41" occupancy="0.47" waitingTime="0.00" timeLoss="0.00" speed="15.11" speedRelative="1.09" departed="1" arrived="0" entered="1" left="2" laneChangedFrom="0" laneChangedTo="0"/>
        <edge id="-152227686#6" sampledSeconds="20.90" traveltime="19.27" overlapTraveltime="19.88" density="0.80" laneDensity="0.80" occupancy="0.35" waitingTime="0.00" timeLoss="0.59" speed="14.76" speedRelative="1.06" departed="2" arrived="0" entered="0" left="2" laneChangedFrom="0" laneChangedTo="0"/>
        <edge id="-152227697#2" sampledSeconds="0.00" departed="0" arrived="0" entered="0" left="0" laneChangedFrom="0" laneChangedTo="0"/>
        <edge id="-152227697#3" sampledSeconds="13.38" traveltime="0.84" overlapTraveltime="2.56" density="43.10" laneDensity="43.10" occupancy="8.80" waitingTime="2.50" timeLoss="8.62" speed="3.20" speedRelative="0.14" departed="2" arrived="0" entered="5" left="6" laneChangedFrom="0" laneChangedTo="0"/>
        <edge id="-155315678#4" sampledSeconds="0.00" departed="0" arrived="0" entered="0" left="0" laneChangedFrom="0" laneChangedTo="0"/>
        <edge id="-155315678#5" sampledSeconds="113.49" traveltime="48.54" overlapTraveltime="49.01" density="4.68" laneDensity="4.68" occupancy="1.22" waitingTime="35.10" timeLoss="44.44" speed="5.56" speedRelative="0.25" departed="1" arrived="0" entered="2" left="0" laneChangedFrom="0" laneChangedTo="0"/>
        <edge id="-155315680#1" sampledSeconds="30.33" traveltime="9.26" overlapTraveltime="16.30" density="3.38" laneDensity="3.38" occupancy="1.77" waitingTime="8.60" timeLoss="12.69" speed="6.52" speedRelative="0.47" departed="2" arrived="0" entered="1" left="3" laneChangedFrom="0" laneChangedTo="0"/>
        <edge id="-155315682" sampledSeconds="0.00" departed="0" arrived="0" entered="0" left="0" laneChangedFrom="0" laneChangedTo="0"/>
        <edge id="-155315683" sampledSeconds="12.21" traveltime="14.23" overlapTraveltime="14.89" density="0.67" laneDensity="0.67" occupancy="0.30" waitingTime="0.00" timeLoss="1.53" speed="13.86" speedRelative="1.00" departed="1" arrived="0" entered="0" left="1" laneChangedFrom="0" laneChangedTo="0"/>
        <edge id="-155315688#0" sampledSeconds="11.81" traveltime="6.38" overlapTraveltime="7.85" density="1.97" laneDensity="1.97" occupancy="1.36" waitingTime="0.00" timeLoss="2.23" speed="9.49" speedRelative="0.68" departed="2" arrived="0" entered="0" left="2" laneChangedFrom="0" laneChangedTo="0"/>
        <edge id="-155315688#1" sampledSeconds="0.00" departed="0" arrived="0" entered="0" left="0" laneChangedFrom="0" laneChangedTo="0"/>
        <edge id="-155315693#2" sampledSeconds="65.10" traveltime="22.37" overlapTraveltime="22.95" density="2.64" laneDensity="2.64" occupancy="1.14" waitingTime="2.60" timeLoss="8.34" speed="12.14" speedRelative="0.87" departed="0" arrived="1" entered="4" left="1" laneChangedFrom="0" laneChangedTo="0"/>
        <edge id="-155315693#8" sampledSeconds="13.33" traveltime="29.04" overlapTraveltime="29.24" density="0.36" laneDensity="0.36" occupancy="0.10" waitingTime="0.00" timeLoss="0.08" speed="14.12" speedRelative="1.02" departed="2" arrived="0" entered="0" left="1" laneChangedFrom="0" laneChangedTo="0"/>
        <edge id="-155315694#2" sampledSeconds="20.29" traveltime="18.50" overlapTraveltime="20.79" density="1.01" laneDensity="1.01" occupancy="0.56" waitingTime="0.00" timeLoss="3.03" speed="11.00" speedRelative="0.79" departed="2" arrived="0" entered="0" left="2" laneChangedFrom="0" laneChangedTo="0"/>
        <edge id="-155315694#3" sampledSeconds="0.00" departed="0" arrived="0" entered="0" left="0" laneChangedFrom="0" laneChangedTo="0"/>
        <edge id="-155315695#0" sampledSeconds="33.09" traveltime="9.05" overlapTraveltime="10.25" density="3.55" laneDensity="3.55" occupancy="2.50" waitingTime="0.00" timeLoss="4.90" speed="10.87" speedRelative="0.78" departed="1" arrived="0" entered="3" left="4" laneChangedFrom="0" laneChangedTo="0"/>
        <edge id="-155315695#1" sampledSeconds="19.97" traveltime="5.87" overlapTraveltime="6.69" density="5.40" laneDensity="5.40" occupancy="3.58" waitingTime="0.00" timeLoss="9.09" speed="7.40" speedRelative="0.53" departed="0" arrived="0" entered="3" left="3" laneChangedFrom="0" laneChangedTo="0"/>
        <edge id="-155315695#3" sampledSeconds="33.06" traveltime="19.83" overlapTraveltime="23.18" density="1.50" laneDensity="1.50" occupancy="1.42" waitingTime="0.00" timeLoss="5.45" speed="10.99" speedRelative="0.79" departed="2" arrived="0" entered="1" left="3" laneChangedFrom="0" laneChangedTo="0"/>
        <edge id="-155315695#4" sampledSeconds="8.05" traveltime="7.00" overlapTraveltime="8.05" density="1.75" laneDensity="1.75" occupancy="1.62" waitingTime="0.00" timeLoss="3.57" speed="7.83" speedRelative="0.56" departed="0" arrived="0" entered="1" left="1" laneChangedFrom="0" laneChangedTo="0"/>
        <edge id="-155315711" sampledSeconds="32.14" traveltime="27.30" overlapTraveltime="28.12" density="4.44" laneDensity="4.44" occupancy="1.15" waitingTime="17.10" timeLoss="25.30" speed="2.95" speedRelative="0.21" departed="1" arrived="0" entered="1" left="2" laneChangedFrom="0" laneChangedTo="0"/>
        <edge id="-155315719#0" sampledSeconds="63.95" traveltime="26.63" overlapTraveltime="27.25" density="1.52" laneDensity="1.52" occupancy="0.74" waitingTime="0.00" timeLoss="3.03" speed="17.39" speedRelative="0.78" departed="3" arrived="0" entered="1" left="4" laneChangedFrom="0" laneChangedTo="0"/>
        <edge id="-155315719#1" sampledSeconds="12.24" traveltime="9.13" overlapTraveltime="9.60" density="0.85" laneDensity="0.85" occupancy="0.51" waitingTime="0.00" timeLoss="0.76" speed="17.27" speedRelative="0.78" departed="2" arrived="0" entered="0" left="2" laneChangedFrom="0" laneChangedTo="0"/>
        <edge id="-155315719#15" sampledSeconds="77.10" traveltime="146.42" overlapTraveltime="146.69" density="0.97" laneDensity="0.97" occupancy="0.16" waitingTime="0.00" timeLoss="0.39" speed="6.01" speedRelative="0.27" departed="1" arrived="0" entered="0" left="0" laneChangedFrom="0" laneChangedTo="0"/>
        <edge id="-155315719#2" sampledSeconds="0.00" departed="0" arrived="0" entered="0" left="0" laneChangedFrom="0" laneChangedTo="0"/>
        <edge id="-155315719#8" sampledSeconds="0.00" departed="0" arrived="0" entered="0" left="0" laneChangedFrom="0" laneChangedTo="0"/>
        <edge id="-155775198#0" sampledSeconds="125.62" traveltime="34.78" overlapTraveltime="35.35" density="3.69" laneDensity="3.69" occupancy="2.26" waitingTime="31.90" timeLoss="54.99" speed="10.87" speedRelative="0.39" departed="0" arrived="0" entered="4" left="0" laneChangedFrom="0" laneChangedTo="0"/>
        <edge id="-155775198#3" sampledSeconds="137.18" traveltime="44.26" overlapTraveltime="45.81" density="3.88" laneDensity="3.88" occupancy="1.92" waitingTime="49.80" timeLoss="65.73" speed="8.68" speedRelative="0.31" departed="0" arrived="0" entered="3" left="2" laneChangedFrom="0" laneChangedTo="0"/>
        <edge id="-155775198#4" sampledSeconds="170.11" traveltime="24.86" overlapTraveltime="27.32" density="59.74" laneDensity="59.74" occupancy="29.20" waitingTime="115.10" timeLoss="152.77" speed="1.35" speedRelative="0.05" departed="2" arrived="0" entered="8" left="2" laneChangedFrom="0" laneChangedTo="0"/>
        <edge id="-155775198#5" sampledSeconds="12.58" traveltime="1.21" overlapTraveltime="1.84" density="13.03" laneDensity="13.03" occupancy="4.26" waitingTime="0.00" timeLoss="6.55" speed="8.80" speedRelative="0.32" departed="0" arrived="0" entered="7" left="7" laneChangedFrom="0" laneChangedTo="0"/>
        <edge id="-155775198#6" sampledSeconds="93.67" traveltime="13.55" overlapTraveltime="14.02" density="5.25" laneDensity="5.25" occupancy="3.35" waitingTime="0.50" timeLoss="16.61" speed="14.61" speedRelative="0.53" departed="0" arrived="0" entered="8" left="5" laneChangedFrom="0" laneChangedTo="0"/>
        <edge id="-155775200#1" sampledSeconds="124.05" traveltime="43.52" overlapTraveltime="43.81" density="1.86" laneDensity="1.86" occupancy="0.68" waitingTime="0.00" timeLoss="2.90" speed="16.99" speedRelative="0.61" departed="2" arrived="0" entered="3" left="1" laneChangedFrom="0" laneChangedTo="0"/>
        <edge id="-163652291" sampledSeconds="56.97" traveltime="28.04" overlapTraveltime="32.40" density="17.60" laneDensity="17.60" occupancy="9.69" waitingTime="47.30" timeLoss="53.46" speed="1.28" speedRelative="0.05" departed="0" arrived="0" entered="3" left="0" laneChangedFrom="0" laneChangedTo="0"/>
        <edge id="-205021436#0" sampledSeconds="240.87" traveltime="46.62" overlapTraveltime="46.97" density="4.78" laneDensity="4.78" occupancy="2.03" waitingTime="33.10" timeLoss="67.13" speed="12.01" speedRelative="0.43" departed="0" arrived="0" entered="7" left="0" laneChangedFrom="0" laneChangedTo="0"/>
        <edge id="-205021436#1" sampledSeconds="53.94" traveltime="6.28" overlapTraveltime="6.66" density="5.83" laneDensity="5.83" occupancy="2.13" waitingTime="0.00" timeLoss="6.73" speed="16.02" speedRelative="0.58" departed="0" arrived="0" entered="9" left="8" laneChangedFrom="0" laneChangedTo="0"/>
        <edge id="-271412010" sampledSeconds="44.57" traveltime="41.83" overlapTraveltime="46.35" density="1.53" laneDensity="1.53" occupancy="1.77" waitingTime="11.90" timeLoss="17.24" speed="7.23" speedRelative="0.52" departed="1" arrived="0" entered="0" left="1" laneChangedFrom="0" laneChangedTo="0"/>
        <edge id="-31905181#0" sampledSeconds="46.39" traveltime="13.47" overlapTraveltime="15.02" density="3.39" laneDensity="3.39" occupancy="2.79" waitingTime="0.00" timeLoss="7.08" speed="10.74" speedRelative="0.77" departed="1" arrived="0" entered="3" left="3" laneChangedFrom="0" laneChangedTo="0"/>
        <edge id="-31905181#3" sampledSeconds="57.06" traveltime="28.02" overlapTraveltime="28.52" density="1.89" laneDensity="1.89" occupancy="1.26" waitingTime="0.00" timeLoss="5.89" speed="12.02" speedRelative="0.87" departed="0" arrived="0" entered="2" left="2" laneChangedFrom="0" laneChangedTo="0"/>
        <edge id="-31905190#0" sampledSeconds="0.00" departed="0" arrived="0" entered="0" left="0" laneChangedFrom="0" laneChangedTo="0"/>
        <edge id="-31905190#3" sampledSeconds="0.00" departed="0" arrived="0" entered="0" left="0" laneChangedFrom="0" laneChangedTo="0"/>
        <edge id="-31905195#1" sampledSeconds="0.00" departed="0" arrived="0" entered="0" left="0" laneChangedFrom="0" laneChangedTo="0"/>
        <edge id="-31905195#2" sampledSeconds="0.00" departed="0" arrived="0" entered="0" left="0" laneChangedFrom="0" laneChangedTo="0"/>
        <edge id="-31905201#2" sampledSeconds="52.60" traveltime="18.33" overlapTraveltime="18.77" density="1.54" laneDensity="1.54" occupancy="0.89" waitingTime="0.00" timeLoss="1.55" speed="20.51" speedRelative="0.74" departed="1" arrived="0" entered="2" left="3" laneChangedFrom="0" laneChangedTo="0"/>
        <edge id="-31905214" sampledSeconds="81.24" traveltime="14.96" overlapTraveltime="16.23" density="7.59" laneDensity="7.59" occupancy="3.63" waitingTime="20.50" timeLoss="46.50" speed="7.64" speedRelative="0.27" departed="0" arrived="0" entered="6" left="4" laneChangedFrom="0" laneChangedTo="0"/>
        <edge id="-322191552" sampledSeconds="309.02" traveltime="44.47" overlapTraveltime="44.71" density="9.70" laneDensity="9.70" occupancy="1.69" waitingTime="0.00" timeLoss="10.88" speed="7.95" speedRelative="0.29" departed="0" arrived="0" entered="8" left="6" laneChangedFrom="0" laneChangedTo="0"/>
        <edge id="-406038877" sampledSeconds="0.00" departed="0" arrived="0" entered="0" left="0" laneChangedFrom="0" laneChangedTo="0"/>
        <edge id="-442885101#0" sampledSeconds="428.16" traveltime="43.20" overlapTraveltime="43.84" density="36.54" laneDensity="18.27" occupancy="5.43" waitingTime="305.90" timeLoss="355.30" speed="3.04" speedRelative="0.11" departed="2" arrived="0" entered="9" left="4" laneChangedFrom="1" laneChangedTo="1" teleported="2"/>
        <edge id="-442885101#1" sampledSeconds="22.69" traveltime="2.63" overlapTraveltime="2.84" density="6.96" laneDensity="3.48" occupancy="1.01" waitingTime="0.00" timeLoss="5.78" speed="13.90" speedRelative="0.50" departed="1" arrived="0" entered="8" left="8" laneChangedFrom="1" laneChangedTo="1"/>
        <edge id="-442885101#2" sampledSeconds="34.03" traveltime="4.36" overlapTraveltime="4.59" density="7.68" laneDensity="3.84" occupancy="1.10" waitingTime="0.00" timeLoss="12.67" speed="11.40" speedRelative="0.41" departed="1" arrived="0" entered="7" left="7" laneChangedFrom="0" laneChangedTo="0"/>
        <edge id="-442885355#1" sampledSeconds="12.10" traveltime="8.11" overlapTraveltime="8.26" density="2.13" laneDensity="2.13" occupancy="0.40" waitingTime="0.00" timeLoss="2.80" speed="7.89" speedRelative="0.28" departed="1" arrived="0" entered="1" left="1" laneChangedFrom="0" laneChangedTo="0"/>
        <edge id="-442885355#2" sampledSeconds="26.17" traveltime="3.19" overlapTraveltime="15.04" density="9.35" laneDensity="9.35" occupancy="2.90" waitingTime="17.70" timeLoss="21.95" speed="2.35" speedRelative="0.08" departed="1" arrived="0" entered="1" left="2" laneChangedFrom="0" laneChangedTo="0"/>
        <edge id="-442885357" sampledSeconds="71.33" traveltime="25.70" overlapTraveltime="25.89" density="2.24" laneDensity="2.24" occupancy="0.60" waitingTime="0.00" timeLoss="10.06" speed="13.79" speedRelative="0.50" departed="0" arrived="0" entered="4" left="1" laneChangedFrom="0" laneChangedTo="0"/>
        <edge id="-442885359#0" sampledSeconds="2.66" traveltime="5.27" overlapTraveltime="5.63" density="0.41" laneDensity="0.41" occupancy="0.09" waitingTime="0.00" timeLoss="0.43" speed="13.24" speedRelative="0.95" departed="1" arrived="0" entered="0" left="1" laneChangedFrom="0" laneChangedTo="0"/>
        <edge id="-442885359#2" sampledSeconds="0.00" departed="0" arrived="0" entered="0" left="0" laneChangedFrom="0" laneChangedTo="0"/>
        <edge id="-482169086#8" sampledSeconds="626.09" traveltime="83.63" overlapTraveltime="83.86" density="5.23" laneDensity="2.61" occupancy="0.94" waitingTime="21.90" timeLoss="87.02" speed="15.91" speedRelative="0.57" departed="2" arrived="0" entered="18" left="0" laneChangedFrom="6" laneChangedTo="6"/>
        <edge id="-721131932" sampledSeconds="8.70" traveltime="9.99" overlapTraveltime="10.12" density="73.78" laneDensity="73.78" occupancy="9.23" waitingTime="2.60" timeLoss="6.86" speed="0.92" speedRelative="0.04" departed="1" arrived="0" entered="0" left="1" laneChangedFrom="0" laneChangedTo="0"/>
        <edge id="-721131933#1" sampledSeconds="0.00" departed="0" arrived="0" entered="0" left="0" laneChangedFrom="0" laneChangedTo="0"/>
        <edge id="-721131938" sampledSeconds="2.70" traveltime="0.06" overlapTraveltime="2.70" density="150.23" laneDensity="150.23" occupancy="2.95" waitingTime="0.00" timeLoss="0.79" speed="4.51" speedRelative="0.20" departed="0" arrived="0" entered="1" left="1" laneChangedFrom="0" laneChangedTo="0"/>
        <edge id="-721131939" sampledSeconds="3.90" traveltime="0.87" overlapTraveltime="2.95" density="25.21" laneDensity="25.21" occupancy="3.61" waitingTime="0.00" timeLoss="1.57" speed="2.76" speedRelative="0.12" departed="2" arrived="0" entered="0" left="2" laneChangedFrom="0" laneChangedTo="0"/>
        <edge id="-721131940" sampledSeconds="1.74" traveltime="0.03" overlapTraveltime="1.04" density="87.93" laneDensity="87.93" occupancy="1.84" waitingTime="0.00" timeLoss="0.25" speed="6.48" speedRelative="0.29" departed="0" arrived="1" entered="3" left="2" laneChangedFrom="0" laneChangedTo="0"/>
        <edge id="-721131941" sampledSeconds="5.27" traveltime="1.51" overlapTraveltime="3.39" density="292.63" laneDensity="292.63" occupancy="4.13" waitingTime="2.50" timeLoss="4.37" speed="1.35" speedRelative="0.06" departed="0" arrived="0" entered="2" left="2" laneChangedFrom="0" laneChangedTo="0"/>
        <edge id="-721131942" sampledSeconds="3.72" traveltime="0.27" overlapTraveltime="1.44" density="35.07" laneDensity="35.07" occupancy="3.48" waitingTime="0.00" timeLoss="0.75" speed="4.69" speedRelative="0.21" departed="1" arrived="0" entered="2" left="3" laneChangedFrom="0" laneChangedTo="0"/>
        <edge id="-721131943" sampledSeconds="2.91" traveltime="0.12" overlapTraveltime="1.74" density="161.47" laneDensity="161.47" occupancy="3.08" waitingTime="0.00" timeLoss="0.90" speed="2.39" speedRelative="0.11" departed="1" arrived="0" entered="1" left="2" laneChangedFrom="0" laneChangedTo="0"/>
        <edge id="-721131953" sampledSeconds="7.43" traveltime="13.23" overlapTraveltime="7.53" density="412.88" laneDensity="412.88" occupancy="7.54" waitingTime="2.70" timeLoss="6.67" speed="1.62" speedRelative="0.12" departed="1" arrived="0" entered="0" left="1" laneChangedFrom="0" laneChangedTo="0"/>
        <edge id="-721131956" sampledSeconds="3.93" traveltime="0.30" overlapTraveltime="1.74" density="22.86" laneDensity="22.86" occupancy="3.42" waitingTime="0.00" timeLoss="1.07" speed="6.22" speedRelative="0.28" departed="0" arrived="0" entered="3" left="3" laneChangedFrom="0" laneChangedTo="0"/>
        <edge id="-721131961" sampledSeconds="0.00" departed="0" arrived="0" entered="0" left="0" laneChangedFrom="0" laneChangedTo="0"/>
        <edge id="-721131962" sampledSeconds="4.20" traveltime="0.37" overlapTraveltime="4.25" density="233.44" laneDensity="233.44" occupancy="4.63" waitingTime="0.00" timeLoss="1.89" speed="2.87" speedRelative="0.21" departed="1" arrived="0" entered="0" left="1" laneChangedFrom="0" laneChangedTo="0"/>
        <edge id="-721131967" sampledSeconds="2.13" traveltime="14.11" overlapTraveltime="14.92" density="0.29" laneDensity="0.29" occupancy="0.04" waitingTime="0.00" timeLoss="0.28" speed="5.55" speedRelative="0.40" departed="1" arrived="0" entered="0" left="1" laneChangedFrom="0" laneChangedTo="0"/>